 Gaussian 16, Revision A.03,
 Gaussian 16:  ES64L-G16RevA.03 25-Dec-2016

 ----------------------------------------------------------------------
 #b3lyp/svp scf=(tight,noincore) Test #IOP(5/87=12) Density=Current Pop
 =(MK,readradii) iop(6/33=2) iop(6/42=6)
 ----------------------------------------------------------------------

 ------------------
 holoCaM_loop3_42.0
 ------------------
 Symbolic Z-matrix:
 Charge =  0 Multiplicity = 1

                         Standard orientation:
 ---------------------------------------------------------------------
 Center     Atomic      Atomic             Coordinates (Angstroms)
 Number     Number       Type             X           Y           Z
 ---------------------------------------------------------------------
      1          6           0        2.223806    2.021611    5.646844
      2          6           0        1.657060    2.127548    4.239372
      3          8           0        2.375029    1.992648    3.252498
      4          1           0        3.210814    1.560971    5.606536
      5          1           0        2.305185    3.017346    6.081775
      6          1           0        1.562839    1.409482    6.260216
      7          7           0        0.361008    2.392079    4.092838
      8          6           0       -0.313490    2.509404    2.807269
      9          6           0       -0.155666    3.868384    2.134019
     10          8           0       -0.661889    4.849669    2.677727
     11          6           0       -1.762472    2.168381    3.119445
     12          6           0       -2.560078    2.208227    1.827456
     13          8           0       -1.990448    2.162509    0.708513
     14          8           0       -3.800789    2.161451    1.977948
     15          1           0       -0.123934    2.661527    4.937604
     16          1           0        0.121140    1.793391    2.117253
     17          1           0       -2.217465    2.767205    3.900849
     18          1           0       -1.846921    1.123352    3.456613
     19          7           0        0.604973    3.970562    1.050327
     20          6           0        0.965599    5.260582    0.497972
     21          6           0       -0.176037    5.781313   -0.374384
     22          8           0       -0.393941    6.982472   -0.255914
     23          6           0        2.369004    5.292062   -0.095461
     24          6           0        3.441288    4.774949    0.848149
     25          6           0        4.837143    5.321277    0.541202
     26          6           0        5.350467    4.869383   -0.826639
     27          7           0        6.632821    5.514439   -1.114343
     28          1           0        0.965311    3.121910    0.644191
     29          1           0        0.986733    5.991878    1.298197
     30          1           0        2.639402    6.325254   -0.335249
     31          1           0        2.380739    4.825767   -1.079246
     32          1           0        3.462797    3.686162    0.709651
     33          1           0        3.238363    4.955633    1.904546
     34          1           0        5.546022    4.963947    1.291406
     35          1           0        4.987649    6.390974    0.633368
     36          1           0        4.671427    5.190766   -1.621760
     37          1           0        5.399784    3.783363   -0.752961
     38          1           0        6.559466    6.459940   -1.461109
     39          1           0        7.241045    5.612554   -0.316824
     40          1           0        7.085120    5.045749   -1.888136
     41          7           0       -0.710703    4.941937   -1.268968
     42          6           0       -1.691830    5.192719   -2.304003
     43          6           0       -3.145333    5.122279   -1.837346
     44          8           0       -4.058720    5.712492   -2.411081
     45          6           0       -1.465714    4.238011   -3.466932
     46          6           0       -1.416220    2.761663   -3.078540
     47          8           0       -0.355187    2.108806   -3.115769
     48          8           0       -2.480992    2.203697   -2.718215
     49          1           0       -0.217206    4.070119   -1.363282
     50          1           0       -1.532775    6.189731   -2.713478
     51          1           0       -0.580074    4.509490   -4.037582
     52          1           0       -2.288159    4.256790   -4.184170
     53          7           0       -3.393928    4.609289   -0.630184
     54          6           0       -4.637852    4.566560    0.093783
     55          6           0       -5.704085    3.539057   -0.268687
     56          8           0       -6.786976    3.573000    0.304981
     57          1           0       -2.633351    4.187214   -0.121092
     58          1           0       -5.055175    5.561976   -0.085071
     59          1           0       -4.435309    4.502157    1.161505
     60          7           0       -5.292870    2.543387   -1.059916
     61          6           0       -6.151295    1.475247   -1.521201
     62          6           0       -6.406732    0.428310   -0.436732
     63          8           0       -7.087773   -0.560171   -0.712573
     64          6           0       -5.560731    0.730961   -2.710602
     65          6           0       -4.308910   -0.061935   -2.348721
     66          7           0       -3.977886   -0.868226   -3.358136
     67          8           0       -3.765959   -0.158938   -1.246952
     68          1           0       -4.309645    2.453468   -1.289879
     69          1           0       -7.151561    1.809251   -1.791771
     70          1           0       -5.231615    1.502822   -3.414671
     71          1           0       -6.268621    0.031658   -3.157778
     72          1           0       -4.491870   -0.800316   -4.228141
     73          1           0       -3.099005   -1.359941   -3.311381
     74          7           0       -5.907395    0.431192    0.794346
     75          6           0       -6.332761   -0.503960    1.825634
     76          6           0       -5.574251   -1.820456    1.860272
     77          8           0       -6.012249   -2.704719    2.581962
     78          1           0       -5.111599    1.025502    0.978751
     79          1           0       -7.370680   -0.720557    1.601112
     80          1           0       -6.236579   -0.097535    2.833289
     81          7           0       -4.432095   -1.907591    1.165946
     82          6           0       -3.534268   -3.028615    1.061007
     83          6           0       -2.088106   -2.563764    1.021885
     84          8           0       -1.802714   -1.512129    0.458933
     85          6           0       -3.851302   -3.870027   -0.181618
     86          6           0       -5.157054   -4.608542   -0.248763
     87          6           0       -5.909049   -4.534474   -1.426523
     88          6           0       -5.639974   -5.331389    0.850455
     89          6           0       -7.102503   -5.267902   -1.527776
     90          6           0       -6.940958   -5.867998    0.840850
     91          6           0       -7.619771   -5.923564   -0.393826
     92          8           0       -8.796106   -6.600639   -0.506541
     93          1           0       -4.214117   -1.172677    0.515571
     94          1           0       -3.668882   -3.664464    1.939059
     95          1           0       -3.161168   -4.704764   -0.288519
     96          1           0       -3.808126   -3.165015   -1.013239
     97          1           0       -5.504515   -3.931725   -2.221221
     98          1           0       -4.973677   -5.524496    1.681392
     99          1           0       -7.714618   -5.251740   -2.414880
    100          1           0       -7.349615   -6.302557    1.740882
    101          1           0       -9.161613   -6.924755    0.320413
    102          7           0       -1.124985   -3.287945    1.604516
    103          6           0        0.300383   -3.005279    1.545987
    104          6           0        0.957242   -3.898480    0.508669
    105          8           0        0.904519   -5.108167    0.729299
    106          6           0        0.941338   -3.056839    2.930298
    107          6           0        0.367971   -2.058267    3.929850
    108          6           0        2.446191   -2.800174    2.845195
    109          6           0        0.411810   -2.604907    5.355985
    110          1           0       -1.324033   -4.190650    2.016589
    111          1           0        0.456088   -2.008886    1.145914
    112          1           0        0.774447   -4.059208    3.336628
    113          1           0       -0.692586   -1.855081    3.746182
    114          1           0        0.833726   -1.082113    3.840999
    115          1           0        2.664962   -1.827339    2.423496
    116          1           0        2.755733   -2.743134    3.884585
    117          1           0        2.900881   -3.662691    2.354765
    118          1           0        1.435895   -2.881321    5.596289
    119          1           0        0.148384   -1.786889    6.017991
    120          1           0       -0.336216   -3.402407    5.430486
    121          7           0        1.731157   -3.374592   -0.436157
    122          6           0        2.626826   -4.053197   -1.352983
    123          6           0        4.057365   -3.995695   -0.818238
    124          8           0        4.382347   -3.226314    0.082116
    125          6           0        2.421044   -3.521589   -2.763354
    126          8           0        2.568934   -2.123823   -2.841964
    127          1           0        1.740586   -2.365348   -0.398236
    128          1           0        2.434511   -5.127482   -1.460348
    129          1           0        1.441584   -3.789956   -3.172545
    130          1           0        3.137573   -3.924301   -3.481204
    131          1           0        1.842482   -1.716662   -2.361352
    132          7           0        4.961616   -4.784606   -1.409551
    133          6           0        6.337962   -4.753524   -0.980944
    134          6           0        7.072467   -3.436764   -1.174969
    135          8           0        7.897334   -3.034269   -0.354670
    136          6           0        7.043748   -5.881775   -1.739770
    137          1           0        4.716438   -5.335105   -2.213876
    138          1           0        6.355119   -4.956965    0.086023
    139          1           0        8.038816   -6.039971   -1.310567
    140          1           0        6.461434   -6.801995   -1.741944
    141          1           0        7.178485   -5.665159   -2.794295
    142          7           0        6.880629   -2.694539   -2.279324
    143          6           0        7.515121   -1.420486   -2.501160
    144          6           0        7.178815   -0.414147   -1.405998
    145          8           0        8.078773    0.341740   -1.056841
    146          6           0        6.960867   -0.927395   -3.836137
    147          1           0        6.398902   -3.212052   -2.995578
    148          1           0        8.599948   -1.434564   -2.572929
    149          1           0        5.889411   -0.755191   -3.717280
    150          1           0        7.401442    0.023793   -4.137691
    151          1           0        7.214471   -1.681512   -4.582523
    152          7           0        5.949660   -0.504193   -0.892608
    153          6           0        5.521348    0.296643    0.241327
    154          6           0        6.148298   -0.079775    1.577981
    155          8           0        6.379049    0.829450    2.379520
    156          6           0        4.009669    0.134937    0.277071
    157          6           0        3.267369    0.786511   -0.891107
    158          6           0        1.762434    0.554086   -0.878890
    159          8           0        1.217266   -0.521170   -1.186490
    160          8           0        1.004989    1.454592   -0.461918
    161          1           0        5.324643   -1.181163   -1.298151
    162          1           0        5.807088    1.335010    0.049891
    163          1           0        3.696625    0.684858    1.169646
    164          1           0        3.693578   -0.908237    0.329743
    165          1           0        3.608282    0.353596   -1.829864
    166          1           0        3.432682    1.856607   -0.931910
    167          7           0        6.341203   -1.373191    1.806157
    168          6           0        6.959141   -1.806801    3.040108
    169          1           0        7.893285   -2.321612    2.816792
    170          1           0        7.163678   -0.940728    3.668859
    171          1           0        6.286830   -2.486175    3.564175
    172          1           0        6.186077   -2.026752    1.048402
    173         20           0       -1.332329    0.513987   -1.143905
    174          8           0       -1.264516   -1.808266   -2.985111
    175          1           0       -0.687905   -1.758080   -3.744257
    176          1           0       -1.267025   -2.733344   -2.738483
 ---------------------------------------------------------------------

 SCF Done:  E(RB3LYP) =  -5333.64460983     A.U. after   17 cycles

 The electronic state is 1-A.
 Alpha  occ. eigenvalues -- -145.36244 -19.20869 -19.14623 -19.14183 -19.14179
 Alpha  occ. eigenvalues --  -19.12602 -19.12411 -19.11930 -19.11019 -19.10289
 Alpha  occ. eigenvalues --  -19.10261 -19.08692 -19.08187 -19.07555 -19.06994
 Alpha  occ. eigenvalues --  -19.06239 -19.06219 -19.05984 -19.05283 -19.04742
 Alpha  occ. eigenvalues --  -19.04090 -19.03690 -19.03582 -19.02134 -15.41999
 Alpha  occ. eigenvalues --  -14.58382 -14.40448 -14.38837 -14.37421 -14.37120
 Alpha  occ. eigenvalues --  -14.36670 -14.35399 -14.34168 -14.33509 -14.33445
 Alpha  occ. eigenvalues --  -14.31996 -14.31816 -14.29918 -14.29454 -14.28712
 Alpha  occ. eigenvalues --  -12.55608 -12.55584 -12.55559 -10.34107 -10.32710
 Alpha  occ. eigenvalues --  -10.31324 -10.30669 -10.29982 -10.29414 -10.29090
 Alpha  occ. eigenvalues --  -10.28507 -10.27521 -10.27375 -10.27056 -10.26938
 Alpha  occ. eigenvalues --  -10.26586 -10.26505 -10.25839 -10.25468 -10.25306
 Alpha  occ. eigenvalues --  -10.24565 -10.24212 -10.23736 -10.23614 -10.23350
 Alpha  occ. eigenvalues --  -10.23269 -10.23204 -10.23093 -10.22838 -10.22626
 Alpha  occ. eigenvalues --  -10.22577 -10.22473 -10.22111 -10.21404 -10.21257
 Alpha  occ. eigenvalues --  -10.21114 -10.20661 -10.20185 -10.19808 -10.19517
 Alpha  occ. eigenvalues --  -10.19445 -10.19392 -10.18840 -10.18617 -10.18341
 Alpha  occ. eigenvalues --  -10.17731 -10.17623 -10.17595 -10.17319 -10.17264
 Alpha  occ. eigenvalues --  -10.17248 -10.17090 -10.17034 -10.16749 -10.16700
 Alpha  occ. eigenvalues --  -10.16262 -10.15031  -1.78941  -1.13765  -1.07904
 Alpha  occ. eigenvalues --   -1.07111  -1.06924  -1.06695  -1.06324  -1.05987
 Alpha  occ. eigenvalues --   -1.05386  -1.04965  -1.03992  -1.03741  -1.03664
 Alpha  occ. eigenvalues --   -1.02905  -1.02766  -1.01233  -1.00902  -1.00870
 Alpha  occ. eigenvalues --   -1.00158  -0.98938  -0.98708  -0.97825  -0.97658
 Alpha  occ. eigenvalues --   -0.97439  -0.97343  -0.96262  -0.95531  -0.93926
 Alpha  occ. eigenvalues --   -0.93743  -0.93718  -0.93527  -0.91244  -0.90873
 Alpha  occ. eigenvalues --   -0.90660  -0.90404  -0.89896  -0.89635  -0.89376
 Alpha  occ. eigenvalues --   -0.88170  -0.88081  -0.87488  -0.85656  -0.85023
 Alpha  occ. eigenvalues --   -0.83218  -0.82965  -0.81980  -0.80925  -0.80760
 Alpha  occ. eigenvalues --   -0.79403  -0.78598  -0.77529  -0.76762  -0.76010
 Alpha  occ. eigenvalues --   -0.75570  -0.75302  -0.74655  -0.73713  -0.72639
 Alpha  occ. eigenvalues --   -0.72303  -0.72071  -0.71203  -0.70958  -0.70489
 Alpha  occ. eigenvalues --   -0.70316  -0.69240  -0.68896  -0.68383  -0.67975
 Alpha  occ. eigenvalues --   -0.67572  -0.67104  -0.65386  -0.65155  -0.64148
 Alpha  occ. eigenvalues --   -0.63442  -0.63200  -0.63011  -0.62593  -0.62410
 Alpha  occ. eigenvalues --   -0.62090  -0.61266  -0.61043  -0.60480  -0.60310
 Alpha  occ. eigenvalues --   -0.59947  -0.59883  -0.58724  -0.58329  -0.58041
 Alpha  occ. eigenvalues --   -0.57466  -0.57412  -0.57230  -0.57124  -0.56245
 Alpha  occ. eigenvalues --   -0.56204  -0.55944  -0.55727  -0.55484  -0.55162
 Alpha  occ. eigenvalues --   -0.54887  -0.54752  -0.54358  -0.53186  -0.53116
 Alpha  occ. eigenvalues --   -0.52990  -0.52539  -0.52338  -0.52233  -0.51729
 Alpha  occ. eigenvalues --   -0.51306  -0.50786  -0.50745  -0.50353  -0.50179
 Alpha  occ. eigenvalues --   -0.49990  -0.49724  -0.49598  -0.49120  -0.48942
 Alpha  occ. eigenvalues --   -0.48264  -0.48159  -0.47911  -0.47793  -0.47641
 Alpha  occ. eigenvalues --   -0.47280  -0.47196  -0.47034  -0.46653  -0.46485
 Alpha  occ. eigenvalues --   -0.46401  -0.46208  -0.46085  -0.46031  -0.46010
 Alpha  occ. eigenvalues --   -0.45824  -0.45666  -0.45622  -0.45196  -0.45109
 Alpha  occ. eigenvalues --   -0.44634  -0.44437  -0.44191  -0.44116  -0.43880
 Alpha  occ. eigenvalues --   -0.43756  -0.43662  -0.43586  -0.43460  -0.43348
 Alpha  occ. eigenvalues --   -0.43272  -0.43255  -0.43079  -0.42963  -0.42721
 Alpha  occ. eigenvalues --   -0.42574  -0.42298  -0.42139  -0.42039  -0.41812
 Alpha  occ. eigenvalues --   -0.41663  -0.41542  -0.41415  -0.41307  -0.41075
 Alpha  occ. eigenvalues --   -0.40772  -0.40648  -0.40588  -0.40461  -0.40289
 Alpha  occ. eigenvalues --   -0.40234  -0.40026  -0.40015  -0.39756  -0.39486
 Alpha  occ. eigenvalues --   -0.39345  -0.39169  -0.39106  -0.38960  -0.38809
 Alpha  occ. eigenvalues --   -0.38771  -0.38624  -0.38430  -0.38225  -0.38130
 Alpha  occ. eigenvalues --   -0.38089  -0.37920  -0.37734  -0.37659  -0.37541
 Alpha  occ. eigenvalues --   -0.37463  -0.37383  -0.37343  -0.36995  -0.36691
 Alpha  occ. eigenvalues --   -0.36619  -0.36326  -0.36025  -0.35970  -0.35740
 Alpha  occ. eigenvalues --   -0.35613  -0.35403  -0.35217  -0.35089  -0.34956
 Alpha  occ. eigenvalues --   -0.34856  -0.34838  -0.34506  -0.34345  -0.34297
 Alpha  occ. eigenvalues --   -0.34082  -0.33660  -0.33420  -0.33370  -0.32694
 Alpha  occ. eigenvalues --   -0.32387  -0.32280  -0.32147  -0.32017  -0.31804
 Alpha  occ. eigenvalues --   -0.31619  -0.31369  -0.30880  -0.30613  -0.30131
 Alpha  occ. eigenvalues --   -0.29949  -0.29930  -0.28992  -0.28890  -0.28745
 Alpha  occ. eigenvalues --   -0.28515  -0.28274  -0.27907  -0.27684  -0.27248
 Alpha  occ. eigenvalues --   -0.27166  -0.26277  -0.25709  -0.25542  -0.25179
 Alpha  occ. eigenvalues --   -0.24787  -0.24722  -0.24474  -0.24430  -0.23975
 Alpha  occ. eigenvalues --   -0.23886  -0.23767  -0.23439  -0.23304  -0.22764
 Alpha  occ. eigenvalues --   -0.22532  -0.22014  -0.21701  -0.21628  -0.21377
 Alpha  occ. eigenvalues --   -0.20961  -0.20682  -0.19939  -0.19851  -0.19071
 Alpha  occ. eigenvalues --   -0.18761  -0.18268  -0.18190
 Alpha virt. eigenvalues --   -0.10248  -0.04765  -0.03685  -0.03460  -0.02733
 Alpha virt. eigenvalues --   -0.01759  -0.01149  -0.00987  -0.00530   0.00183
 Alpha virt. eigenvalues --    0.00510   0.00664   0.00679   0.01984   0.02530

 Mulliken charges:
               1
     1  C    0.048065
     2  C    0.010502
     3  O   -0.299335
     4  H    0.033247
     5  H    0.034880
     6  H    0.016857
     7  N   -0.117786
     8  C    0.165144
     9  C    0.050804
    10  O   -0.291808
    11  C    0.054502
    12  C    0.151994
    13  O   -0.487098
    14  O   -0.363091
    15  H    0.112778
    16  H   -0.016610
    17  H    0.012198
    18  H    0.011365
    19  N   -0.133164
    20  C    0.109701
    21  C    0.072718
    22  O   -0.260101
    23  C    0.030030
    24  C    0.069071
    25  C   -0.055193
    26  C    0.001545
    27  N    0.090929
    28  H    0.134024
    29  H    0.004339
    30  H   -0.011702
    31  H   -0.006558
    32  H    0.041436
    33  H    0.041925
    34  H    0.034129
    35  H    0.001220
    36  H    0.074040
    37  H    0.104490
    38  H    0.181574
    39  H    0.189650
    40  H    0.193038
    41  N   -0.137930
    42  C    0.117825
    43  C    0.074329
    44  O   -0.286910
    45  C    0.114652
    46  C    0.043303
    47  O   -0.392711
    48  O   -0.433422
    49  H    0.129608
    50  H    0.013410
    51  H   -0.019392
    52  H    0.023356
    53  N   -0.168698
    54  C    0.200263
    55  C    0.065885
    56  O   -0.287469
    57  H    0.141707
    58  H    0.012577
    59  H    0.046612
    60  N   -0.155096
    61  C    0.173948
    62  C    0.024650
    63  O   -0.324459
    64  C    0.028299
    65  C    0.096554
    66  N   -0.032782
    67  O   -0.383148
    68  H    0.148602
    69  H    0.018864
    70  H    0.051265
    71  H    0.043316
    72  H    0.124574
    73  H    0.085363
    74  N   -0.157135
    75  C    0.252863
    76  C    0.022563
    77  O   -0.297621
    78  H    0.140732
    79  H    0.028621
    80  H    0.035976
    81  N   -0.140022
    82  C    0.125515
    83  C    0.131583
    84  O   -0.360666
    85  C    0.131907
    86  C   -0.034527
    87  C    0.019269
    88  C    0.030453
    89  C   -0.000101
    90  C   -0.029140
    91  C    0.157857
    92  O   -0.208716
    93  H    0.158304
    94  H   -0.007744
    95  H   -0.003479
    96  H   -0.024249
    97  H   -0.054316
    98  H   -0.038571
    99  H   -0.031110
   100  H   -0.041524
   101  H    0.174184
   102  N   -0.119004
   103  C    0.165467
   104  C    0.021124
   105  O   -0.297895
   106  C   -0.101975
   107  C   -0.005547
   108  C    0.084066
   109  C    0.036228
   110  H    0.129770
   111  H   -0.007056
   112  H   -0.015972
   113  H   -0.003231
   114  H    0.009216
   115  H    0.023285
   116  H   -0.011158
   117  H    0.027539
   118  H    0.005837
   119  H    0.005040
   120  H    0.018444
   121  N   -0.125099
   122  C    0.102385
   123  C    0.106365
   124  O   -0.265123
   125  C    0.248459
   126  O   -0.342298
   127  H    0.146365
   128  H    0.018482
   129  H   -0.021932
   130  H   -0.025454
   131  H    0.164033
   132  N   -0.122991
   133  C    0.107122
   134  C    0.043658
   135  O   -0.263876
   136  C    0.030219
   137  H    0.115731
   138  H    0.023809
   139  H    0.050592
   140  H    0.030216
   141  H    0.001658
   142  N   -0.129553
   143  C    0.113881
   144  C    0.047120
   145  O   -0.268737
   146  C    0.023690
   147  H    0.099832
   148  H    0.015281
   149  H    0.024392
   150  H    0.015783
   151  H    0.019684
   152  N   -0.156655
   153  C    0.158889
   154  C    0.072460
   155  O   -0.290980
   156  C   -0.072379
   157  C    0.111310
   158  C    0.182968
   159  O   -0.444891
   160  O   -0.397505
   161  H    0.133927
   162  H   -0.044135
   163  H    0.054552
   164  H    0.039818
   165  H   -0.012815
   166  H   -0.041351
   167  N   -0.154928
   168  C    0.124634
   169  H    0.024564
   170  H    0.039552
   171  H    0.016713
   172  H    0.142734
   173  Ca   1.256827
   174  O   -0.245138
   175  H    0.195216
   176  H    0.187138
 Sum of Mulliken charges =  -0.00000

 Dipole moment (field-independent basis, Debye):
    X=             36.2595    Y=             -4.9848    Z=            -13.1105  Tot=             38.8779
 Quadrupole moment (field-independent basis, Debye-Ang):
   XX=           -565.6430   YY=           -505.4503   ZZ=           -511.2088
   XY=            152.8222   XZ=            -53.1651   YZ=              3.3772

 ESP charges:
               1
     1  C   -0.469028
     2  C    0.895961
     3  O   -0.682295
     4  H    0.135936
     5  H    0.116775
     6  H    0.102974
     7  N   -0.843255
     8  C    0.242927
     9  C    0.613557
    10  O   -0.560414
    11  C   -0.270915
    12  C    0.708904
    13  O   -0.813354
    14  O   -0.626956
    15  H    0.386475
    16  H    0.044440
    17  H    0.093086
    18  H    0.081956
    19  N   -0.417802
    20  C    0.026042
    21  C    0.414326
    22  O   -0.517273
    23  C    0.108165
    24  C   -0.188184
    25  C    0.005300
    26  C    0.139920
    27  N   -0.366746
    28  H    0.257116
    29  H    0.069853
    30  H   -0.017416
    31  H   -0.008122
    32  H    0.099923
    33  H    0.110522
    34  H    0.036438
    35  H    0.012091
    36  H    0.049961
    37  H    0.041231
    38  H    0.321590
    39  H    0.321183
    40  H    0.328911
    41  N   -0.249829
    42  C   -0.050017
    43  C    0.442697
    44  O   -0.546490
    45  C   -0.280124
    46  C    0.826158
    47  O   -0.749721
    48  O   -0.778574
    49  H    0.212335
    50  H    0.118821
    51  H    0.065273
    52  H    0.104985
    53  N   -0.090389
    54  C   -0.405727
    55  C    0.684863
    56  O   -0.581337
    57  H    0.219927
    58  H    0.141252
    59  H    0.176810
    60  N   -0.519615
    61  C    0.220037
    62  C    0.250686
    63  O   -0.521958
    64  C   -0.418978
    65  C    0.828859
    66  N   -0.800352
    67  O   -0.618962
    68  H    0.303658
    69  H    0.088878
    70  H    0.127652
    71  H    0.130770
    72  H    0.356232
    73  H    0.355245
    74  N    0.094585
    75  C   -0.500535
    76  C    0.764695
    77  O   -0.570755
    78  H    0.137487
    79  H    0.186236
    80  H    0.160765
    81  N   -0.661790
    82  C    0.478541
    83  C    0.401207
    84  O   -0.507108
    85  C   -0.035075
    86  C    0.083411
    87  C   -0.173847
    88  C   -0.213429
    89  C   -0.250890
    90  C   -0.221213
    91  C    0.351965
    92  O   -0.565214
    93  H    0.341008
    94  H   -0.052540
    95  H   -0.022212
    96  H    0.009834
    97  H    0.116923
    98  H    0.144160
    99  H    0.165454
   100  H    0.134739
   101  H    0.413190
   102  N   -0.567817
   103  C   -0.032543
   104  C    0.625439
   105  O   -0.581522
   106  C    0.402829
   107  C    0.080596
   108  C   -0.524434
   109  C   -0.358855
   110  H    0.317017
   111  H    0.018226
   112  H   -0.045443
   113  H    0.010366
   114  H    0.038781
   115  H    0.077358
   116  H    0.134427
   117  H    0.123373
   118  H    0.068678
   119  H    0.092189
   120  H    0.086266
   121  N   -0.376485
   122  C   -0.054564
   123  C    0.625969
   124  O   -0.469240
   125  C    0.120051
   126  O   -0.541608
   127  H    0.267564
   128  H    0.066774
   129  H    0.027716
   130  H    0.038782
   131  H    0.315925
   132  N   -0.557143
   133  C    0.198766
   134  C    0.477290
   135  O   -0.508443
   136  C   -0.322479
   137  H    0.308821
   138  H    0.071080
   139  H    0.108293
   140  H    0.105894
   141  H    0.081733
   142  N   -0.455695
   143  C    0.249140
   144  C    0.376680
   145  O   -0.523670
   146  C   -0.356056
   147  H    0.265750
   148  H    0.048544
   149  H    0.079277
   150  H    0.103103
   151  H    0.098928
   152  N   -0.134742
   153  C   -0.338630
   154  C    0.547865
   155  O   -0.562307
   156  C    0.082588
   157  C   -0.062090
   158  C    0.835644
   159  O   -0.708307
   160  O   -0.745185
   161  H    0.204781
   162  H    0.143256
   163  H    0.074900
   164  H   -0.037096
   165  H   -0.017312
   166  H   -0.028392
   167  N   -0.095535
   168  C   -0.169256
   169  H    0.072568
   170  H    0.101294
   171  H    0.058857
   172  H    0.150269
   173  Ca   1.509825
   174  O   -0.786561
   175  H    0.440345
   176  H    0.391136
 Sum of ESP charges =  -0.00000

 Normal termination of Gaussian 16 at Wed Sep 18 19:21:19 2019.
