 Gaussian 16, Revision A.03,
 Gaussian 16:  ES64L-G16RevA.03 25-Dec-2016

 ----------------------------------------------------------------------
 #b3lyp/svp scf=(tight,noincore) Test #IOP(5/87=12) Density=Current Pop
 =(MK,readradii) iop(6/33=2) iop(6/42=6)
 ----------------------------------------------------------------------

 ------------------
 holoCaM_loop3_31.0
 ------------------
 Symbolic Z-matrix:
 Charge =  0 Multiplicity = 1

                         Standard orientation:
 ---------------------------------------------------------------------
 Center     Atomic      Atomic             Coordinates (Angstroms)
 Number     Number       Type             X           Y           Z
 ---------------------------------------------------------------------
      1          6           0        2.412899    3.299884    4.994269
      2          6           0        1.708149    2.633360    3.828690
      3          8           0        2.349578    2.044889    2.948083
      4          1           0        3.402727    2.860403    5.118622
      5          1           0        2.511614    4.367131    4.797444
      6          1           0        1.832059    3.149921    5.904187
      7          7           0        0.385626    2.713150    3.714384
      8          6           0       -0.405933    2.384384    2.539672
      9          6           0       -0.575493    3.591736    1.632285
     10          8           0       -1.484017    4.404368    1.757239
     11          6           0       -1.764229    1.782066    2.887156
     12          6           0       -2.702980    1.519568    1.719019
     13          8           0       -3.860259    1.088014    1.970941
     14          8           0       -2.288172    1.656822    0.541991
     15          1           0       -0.173899    3.050853    4.484507
     16          1           0        0.124724    1.648879    1.938727
     17          1           0       -2.225073    2.289826    3.741792
     18          1           0       -1.465754    0.791743    3.215597
     19          7           0        0.367834    3.660919    0.699253
     20          6           0        0.646856    4.856123   -0.081538
     21          6           0       -0.418994    5.342467   -1.056850
     22          8           0       -0.342931    6.446946   -1.588489
     23          6           0        1.952653    4.616633   -0.830896
     24          6           0        3.186831    4.362159    0.024409
     25          6           0        3.582461    5.536996    0.918578
     26          6           0        4.821263    5.244511    1.758591
     27          7           0        5.147055    6.430849    2.570356
     28          1           0        1.063967    2.925749    0.651044
     29          1           0        0.692256    5.658299    0.652118
     30          1           0        2.093257    5.433644   -1.537454
     31          1           0        1.859111    3.695089   -1.393574
     32          1           0        3.997936    4.131105   -0.660077
     33          1           0        3.059352    3.461557    0.635363
     34          1           0        2.748663    5.722697    1.597764
     35          1           0        3.691124    6.384674    0.237304
     36          1           0        5.686473    4.870461    1.217020
     37          1           0        4.456734    4.399503    2.342782
     38          1           0        4.288011    6.807448    2.950510
     39          1           0        5.823213    6.289021    3.303906
     40          1           0        5.567127    7.111383    1.967104
     41          7           0       -1.467323    4.563960   -1.302476
     42          6           0       -2.504234    4.944002   -2.246766
     43          6           0       -3.914235    4.747049   -1.712719
     44          8           0       -4.865727    5.083608   -2.405389
     45          6           0       -2.297811    4.264925   -3.602621
     46          6           0       -2.168248    2.753089   -3.578800
     47          8           0       -2.507036    2.142178   -2.542021
     48          8           0       -1.478125    2.167174   -4.444497
     49          1           0       -1.517722    3.676423   -0.831479
     50          1           0       -2.306315    5.989088   -2.508917
     51          1           0       -1.382799    4.652950   -4.048479
     52          1           0       -3.091780    4.500065   -4.309461
     53          7           0       -4.084736    4.285423   -0.466432
     54          6           0       -5.433078    4.156154    0.035726
     55          6           0       -6.202100    2.887483   -0.286888
     56          8           0       -7.382427    2.803972    0.047708
     57          1           0       -3.249176    4.154043    0.080083
     58          1           0       -6.016986    5.054582   -0.189839
     59          1           0       -5.307573    4.110443    1.115892
     60          7           0       -5.573588    1.844584   -0.846204
     61          6           0       -6.285020    0.724485   -1.422609
     62          6           0       -6.626087   -0.380102   -0.434601
     63          8           0       -7.179298   -1.402448   -0.826858
     64          6           0       -5.442999    0.370823   -2.643111
     65          6           0       -4.347710   -0.641956   -2.364505
     66          7           0       -3.913766   -1.411316   -3.374841
     67          8           0       -3.743785   -0.673082   -1.306722
     68          1           0       -4.596292    2.010427   -1.034855
     69          1           0       -7.219125    1.154299   -1.799049
     70          1           0       -5.016658    1.287303   -3.065836
     71          1           0       -6.037357   -0.131203   -3.406006
     72          1           0       -4.290386   -1.282352   -4.299733
     73          1           0       -3.102536   -2.014514   -3.271604
     74          7           0       -6.219140   -0.235877    0.834018
     75          6           0       -6.270658   -1.056658    2.021563
     76          6           0       -5.154979   -2.071907    2.234001
     77          8           0       -5.219179   -2.847110    3.180171
     78          1           0       -5.666394    0.596569    0.985365
     79          1           0       -7.156407   -1.688740    1.977748
     80          1           0       -6.354748   -0.411253    2.896481
     81          7           0       -4.102945   -2.035080    1.414264
     82          6           0       -3.014398   -2.990151    1.416601
     83          6           0       -1.615018   -2.385198    1.323490
     84          8           0       -1.297496   -1.688610    0.361593
     85          6           0       -3.321605   -3.973147    0.294664
     86          6           0       -4.670956   -4.659060    0.224856
     87          6           0       -5.590088   -4.276376   -0.755781
     88          6           0       -4.993857   -5.637097    1.165376
     89          6           0       -6.794351   -4.971156   -0.955861
     90          6           0       -6.198955   -6.325773    1.067581
     91          6           0       -7.044988   -5.984491   -0.003845
     92          8           0       -8.172501   -6.718662   -0.233210
     93          1           0       -4.101207   -1.417412    0.611903
     94          1           0       -3.096153   -3.557379    2.337507
     95          1           0       -2.554051   -4.756361    0.276302
     96          1           0       -3.166029   -3.362953   -0.593008
     97          1           0       -5.323188   -3.464602   -1.411134
     98          1           0       -4.369228   -5.986987    1.975448
     99          1           0       -7.497256   -4.756091   -1.748749
    100          1           0       -6.488204   -7.092741    1.774827
    101          1           0       -8.314381   -7.331868    0.489527
    102          7           0       -0.688236   -2.845062    2.158234
    103          6           0        0.727881   -2.575637    2.034444
    104          6           0        1.317870   -3.678882    1.175338
    105          8           0        1.311622   -4.851417    1.537584
    106          6           0        1.425036   -2.373739    3.378249
    107          6           0        0.877111   -1.129341    4.075782
    108          6           0        2.939842   -2.417813    3.193805
    109          6           0        1.477696   -0.805003    5.445710
    110          1           0       -0.984677   -3.535160    2.842258
    111          1           0        0.837265   -1.643593    1.477194
    112          1           0        1.234775   -3.305795    3.904532
    113          1           0       -0.179343   -1.365653    4.206399
    114          1           0        1.023535   -0.228581    3.476706
    115          1           0        3.092710   -3.390083    2.727090
    116          1           0        3.277785   -1.648290    2.501470
    117          1           0        3.438881   -2.213395    4.137931
    118          1           0        1.536246   -1.696774    6.071342
    119          1           0        2.452841   -0.352148    5.281953
    120          1           0        0.828129   -0.054758    5.882512
    121          7           0        1.981424   -3.309436    0.078385
    122          6           0        2.889959   -4.114889   -0.711812
    123          6           0        4.381773   -3.850319   -0.552148
    124          8           0        4.820431   -2.924248    0.116711
    125          6           0        2.518799   -3.870351   -2.177364
    126          8           0        2.526812   -2.495478   -2.486166
    127          1           0        1.971608   -2.320852   -0.112676
    128          1           0        2.797569   -5.156948   -0.399118
    129          1           0        1.474580   -4.144752   -2.301501
    130          1           0        3.201922   -4.452712   -2.779360
    131          1           0        1.838376   -2.055427   -1.983264
    132          7           0        5.242568   -4.564690   -1.275822
    133          6           0        6.680840   -4.426445   -1.315345
    134          6           0        7.235515   -3.049647   -1.679436
    135          8           0        8.207245   -2.559008   -1.114179
    136          6           0        7.318641   -5.462779   -2.234759
    137          1           0        4.781874   -5.259840   -1.845232
    138          1           0        6.952348   -4.641332   -0.280595
    139          1           0        6.814336   -5.536710   -3.197469
    140          1           0        8.390187   -5.333543   -2.362773
    141          1           0        7.189830   -6.451224   -1.772068
    142          7           0        6.556115   -2.349480   -2.592005
    143          6           0        6.997380   -1.079159   -3.144246
    144          6           0        6.817344    0.060915   -2.148094
    145          8           0        7.275962    1.189397   -2.296750
    146          6           0        6.412408   -0.869337   -4.529303
    147          1           0        5.797875   -2.839008   -3.043152
    148          1           0        8.072971   -1.087364   -3.302154
    149          1           0        5.356172   -1.134082   -4.609142
    150          1           0        6.534548    0.175121   -4.838964
    151          1           0        6.904455   -1.358474   -5.375019
    152          7           0        6.027093   -0.182695   -1.094881
    153          6           0        5.566313    0.635565    0.008129
    154          6           0        6.320953    0.261901    1.276275
    155          8           0        6.627422    1.122828    2.106324
    156          6           0        4.069568    0.413103    0.226225
    157          6           0        3.174519    0.546865   -0.991599
    158          6           0        1.696727    0.343411   -0.677694
    159          8           0        1.002705    1.371079   -0.518849
    160          8           0        1.209420   -0.803155   -0.760878
    161          1           0        5.632021   -1.112772   -1.067045
    162          1           0        5.767273    1.679184   -0.216759
    163          1           0        3.593055    0.928510    1.063656
    164          1           0        3.943776   -0.633364    0.474383
    165          1           0        3.471289   -0.206132   -1.724419
    166          1           0        3.349962    1.518165   -1.469507
    167          7           0        6.875424   -0.955219    1.317263
    168          6           0        7.868032   -1.385098    2.273943
    169          1           0        7.718684   -0.854891    3.214058
    170          1           0        7.770334   -2.458123    2.442279
    171          1           0        8.863857   -1.166703    1.888337
    172          1           0        6.528585   -1.581905    0.599025
    173         20           0       -1.136313    0.346283   -1.345284
    174          8           0        0.189246    0.192308   -3.609105
    175          1           0        0.866975   -0.206798   -4.171243
    176          1           0       -0.155683    0.917399   -4.129363
 ---------------------------------------------------------------------

 SCF Done:  E(RB3LYP) =  -5333.63802948     A.U. after   18 cycles

 The electronic state is 1-A.
 Alpha  occ. eigenvalues -- -145.37620 -19.14395 -19.14384 -19.13455 -19.13199
 Alpha  occ. eigenvalues --  -19.12076 -19.11740 -19.11446 -19.11155 -19.11153
 Alpha  occ. eigenvalues --  -19.10680 -19.09690 -19.09253 -19.08995 -19.08143
 Alpha  occ. eigenvalues --  -19.07576 -19.05790 -19.05309 -19.04974 -19.04868
 Alpha  occ. eigenvalues --  -19.04854 -19.04442 -19.04146 -19.02738 -15.43371
 Alpha  occ. eigenvalues --  -14.58460 -14.39754 -14.38216 -14.37630 -14.36595
 Alpha  occ. eigenvalues --  -14.36476 -14.35140 -14.34972 -14.34155 -14.33609
 Alpha  occ. eigenvalues --  -14.32798 -14.31203 -14.30880 -14.30398 -14.29726
 Alpha  occ. eigenvalues --  -12.56991 -12.56951 -12.56926 -10.33837 -10.31799
 Alpha  occ. eigenvalues --  -10.31041 -10.30815 -10.29817 -10.29650 -10.29384
 Alpha  occ. eigenvalues --  -10.28620 -10.28244 -10.27137 -10.27066 -10.26826
 Alpha  occ. eigenvalues --  -10.26755 -10.26448 -10.26237 -10.25567 -10.25398
 Alpha  occ. eigenvalues --  -10.24216 -10.24036 -10.24012 -10.23939 -10.23855
 Alpha  occ. eigenvalues --  -10.23462 -10.23437 -10.23412 -10.23128 -10.22914
 Alpha  occ. eigenvalues --  -10.22882 -10.22771 -10.22131 -10.22122 -10.21313
 Alpha  occ. eigenvalues --  -10.21146 -10.20921 -10.20631 -10.20614 -10.19755
 Alpha  occ. eigenvalues --  -10.19159 -10.18882 -10.18763 -10.18631 -10.18409
 Alpha  occ. eigenvalues --  -10.18345 -10.17995 -10.17976 -10.17184 -10.17055
 Alpha  occ. eigenvalues --  -10.16885 -10.16578 -10.16340 -10.16276 -10.16175
 Alpha  occ. eigenvalues --  -10.15800 -10.15240  -1.80259  -1.13681  -1.08398
 Alpha  occ. eigenvalues --   -1.07735  -1.07672  -1.07347  -1.05487  -1.05285
 Alpha  occ. eigenvalues --   -1.04623  -1.04562  -1.04254  -1.03416  -1.02530
 Alpha  occ. eigenvalues --   -1.02513  -1.02202  -1.02155  -1.00917  -1.00817
 Alpha  occ. eigenvalues --   -1.00511  -0.99734  -0.98859  -0.98388  -0.97999
 Alpha  occ. eigenvalues --   -0.97967  -0.97226  -0.96584  -0.96226  -0.94823
 Alpha  occ. eigenvalues --   -0.93563  -0.93161  -0.92329  -0.92311  -0.92181
 Alpha  occ. eigenvalues --   -0.90984  -0.89890  -0.89434  -0.89105  -0.88694
 Alpha  occ. eigenvalues --   -0.88397  -0.88153  -0.87981  -0.87280  -0.86131
 Alpha  occ. eigenvalues --   -0.82791  -0.82089  -0.81700  -0.81374  -0.80011
 Alpha  occ. eigenvalues --   -0.79026  -0.78635  -0.77830  -0.76355  -0.76201
 Alpha  occ. eigenvalues --   -0.76023  -0.74669  -0.74345  -0.74243  -0.73598
 Alpha  occ. eigenvalues --   -0.73214  -0.72208  -0.71915  -0.71520  -0.70379
 Alpha  occ. eigenvalues --   -0.69850  -0.69455  -0.69166  -0.68969  -0.68351
 Alpha  occ. eigenvalues --   -0.67517  -0.66576  -0.65475  -0.65227  -0.64446
 Alpha  occ. eigenvalues --   -0.63447  -0.63306  -0.62496  -0.62347  -0.62043
 Alpha  occ. eigenvalues --   -0.61569  -0.61377  -0.60318  -0.60231  -0.59507
 Alpha  occ. eigenvalues --   -0.59442  -0.59302  -0.59256  -0.59054  -0.57737
 Alpha  occ. eigenvalues --   -0.56744  -0.56702  -0.56359  -0.56083  -0.55904
 Alpha  occ. eigenvalues --   -0.55660  -0.55618  -0.55196  -0.55031  -0.54828
 Alpha  occ. eigenvalues --   -0.54447  -0.54148  -0.53901  -0.53776  -0.53643
 Alpha  occ. eigenvalues --   -0.53354  -0.53217  -0.52603  -0.51882  -0.51657
 Alpha  occ. eigenvalues --   -0.51219  -0.50978  -0.50816  -0.50400  -0.50260
 Alpha  occ. eigenvalues --   -0.50057  -0.49804  -0.49403  -0.49068  -0.48944
 Alpha  occ. eigenvalues --   -0.48692  -0.48620  -0.47978  -0.47865  -0.47749
 Alpha  occ. eigenvalues --   -0.47534  -0.47372  -0.47152  -0.46879  -0.46800
 Alpha  occ. eigenvalues --   -0.46494  -0.46414  -0.46296  -0.46151  -0.46014
 Alpha  occ. eigenvalues --   -0.45818  -0.45721  -0.45605  -0.45198  -0.44915
 Alpha  occ. eigenvalues --   -0.44748  -0.44544  -0.44359  -0.44219  -0.44095
 Alpha  occ. eigenvalues --   -0.43954  -0.43806  -0.43603  -0.43434  -0.43334
 Alpha  occ. eigenvalues --   -0.43249  -0.43032  -0.42941  -0.42597  -0.42529
 Alpha  occ. eigenvalues --   -0.42382  -0.42260  -0.42119  -0.42012  -0.41839
 Alpha  occ. eigenvalues --   -0.41657  -0.41434  -0.41395  -0.41294  -0.41239
 Alpha  occ. eigenvalues --   -0.40922  -0.40886  -0.40589  -0.40455  -0.40375
 Alpha  occ. eigenvalues --   -0.40329  -0.40056  -0.40024  -0.39943  -0.39832
 Alpha  occ. eigenvalues --   -0.39631  -0.39430  -0.39276  -0.39204  -0.39174
 Alpha  occ. eigenvalues --   -0.39051  -0.38749  -0.38496  -0.38265  -0.38245
 Alpha  occ. eigenvalues --   -0.38177  -0.38071  -0.37834  -0.37669  -0.37630
 Alpha  occ. eigenvalues --   -0.37490  -0.37414  -0.37096  -0.36850  -0.36623
 Alpha  occ. eigenvalues --   -0.36516  -0.36456  -0.36380  -0.36014  -0.35949
 Alpha  occ. eigenvalues --   -0.35703  -0.35625  -0.35305  -0.35099  -0.34868
 Alpha  occ. eigenvalues --   -0.34742  -0.34455  -0.34377  -0.34136  -0.33602
 Alpha  occ. eigenvalues --   -0.33459  -0.33137  -0.32954  -0.32852  -0.32704
 Alpha  occ. eigenvalues --   -0.32425  -0.32238  -0.32066  -0.31866  -0.31682
 Alpha  occ. eigenvalues --   -0.31214  -0.31097  -0.31055  -0.30498  -0.30331
 Alpha  occ. eigenvalues --   -0.30050  -0.29520  -0.29020  -0.28963  -0.28896
 Alpha  occ. eigenvalues --   -0.28580  -0.28159  -0.27677  -0.27660  -0.27446
 Alpha  occ. eigenvalues --   -0.27176  -0.27004  -0.26738  -0.26489  -0.26057
 Alpha  occ. eigenvalues --   -0.25009  -0.24923  -0.24863  -0.24030  -0.23983
 Alpha  occ. eigenvalues --   -0.23829  -0.23557  -0.23426  -0.23335  -0.23121
 Alpha  occ. eigenvalues --   -0.23062  -0.22823  -0.22603  -0.22089  -0.21838
 Alpha  occ. eigenvalues --   -0.21020  -0.20918  -0.20052  -0.19983  -0.19703
 Alpha  occ. eigenvalues --   -0.19496  -0.19188  -0.18762
 Alpha virt. eigenvalues --   -0.10341  -0.04574  -0.03941  -0.02024  -0.01334
 Alpha virt. eigenvalues --   -0.01250  -0.00869  -0.00669  -0.00059   0.00488
 Alpha virt. eigenvalues --    0.00799   0.01066   0.01275   0.01401   0.01695

 Mulliken charges:
               1
     1  C    0.061389
     2  C    0.029814
     3  O   -0.304270
     4  H    0.043395
     5  H    0.000279
     6  H    0.032720
     7  N   -0.109054
     8  C    0.058393
     9  C    0.049906
    10  O   -0.281289
    11  C    0.090344
    12  C    0.151162
    13  O   -0.364825
    14  O   -0.473772
    15  H    0.116420
    16  H    0.015958
    17  H    0.006330
    18  H    0.003578
    19  N   -0.148826
    20  C    0.129934
    21  C    0.051564
    22  O   -0.300781
    23  C    0.042288
    24  C   -0.011333
    25  C   -0.083546
    26  C    0.024820
    27  N    0.095014
    28  H    0.163202
    29  H   -0.009617
    30  H    0.016396
    31  H    0.028526
    32  H    0.021607
    33  H    0.040213
    34  H    0.028858
    35  H    0.028285
    36  H    0.089670
    37  H    0.093320
    38  H    0.190668
    39  H    0.190663
    40  H    0.186126
    41  N   -0.148180
    42  C    0.145267
    43  C    0.060100
    44  O   -0.285679
    45  C    0.070253
    46  C    0.109245
    47  O   -0.464470
    48  O   -0.396491
    49  H    0.150177
    50  H    0.031214
    51  H    0.003303
    52  H    0.026216
    53  N   -0.170242
    54  C    0.244338
    55  C    0.023057
    56  O   -0.300495
    57  H    0.140425
    58  H    0.032352
    59  H    0.017242
    60  N   -0.185196
    61  C    0.158196
    62  C    0.056701
    63  O   -0.292202
    64  C    0.070901
    65  C    0.054795
    66  N   -0.046379
    67  O   -0.322333
    68  H    0.153864
    69  H    0.028978
    70  H    0.073248
    71  H    0.000382
    72  H    0.128714
    73  H    0.130535
    74  N   -0.154689
    75  C    0.239439
    76  C    0.041035
    77  O   -0.306419
    78  H    0.153841
    79  H    0.025086
    80  H    0.037929
    81  N   -0.147640
    82  C    0.123521
    83  C    0.166685
    84  O   -0.368110
    85  C    0.129316
    86  C    0.019631
    87  C    0.018707
    88  C    0.005137
    89  C    0.014792
    90  C   -0.040851
    91  C    0.136251
    92  O   -0.206107
    93  H    0.157710
    94  H   -0.021997
    95  H   -0.012274
    96  H   -0.042305
    97  H   -0.048861
    98  H   -0.038946
    99  H   -0.021775
   100  H   -0.048841
   101  H    0.161499
   102  N   -0.120503
   103  C    0.137619
   104  C    0.038828
   105  O   -0.286447
   106  C   -0.099612
   107  C   -0.008032
   108  C    0.070213
   109  C    0.041021
   110  H    0.136771
   111  H    0.011442
   112  H   -0.017214
   113  H    0.006397
   114  H    0.022171
   115  H    0.026753
   116  H    0.002127
   117  H    0.004555
   118  H    0.011515
   119  H    0.013779
   120  H   -0.003928
   121  N   -0.136317
   122  C    0.088010
   123  C    0.081119
   124  O   -0.272816
   125  C    0.263762
   126  O   -0.347357
   127  H    0.141336
   128  H    0.028840
   129  H    0.012788
   130  H   -0.029367
   131  H    0.179887
   132  N   -0.130682
   133  C    0.099452
   134  C    0.040645
   135  O   -0.259562
   136  C    0.033874
   137  H    0.116738
   138  H    0.024624
   139  H    0.012980
   140  H    0.048174
   141  H    0.029023
   142  N   -0.150652
   143  C    0.128724
   144  C    0.055331
   145  O   -0.280763
   146  C    0.021956
   147  H    0.117713
   148  H    0.027834
   149  H    0.019094
   150  H    0.031251
   151  H    0.017665
   152  N   -0.170746
   153  C    0.167660
   154  C    0.081823
   155  O   -0.320145
   156  C   -0.115648
   157  C    0.112717
   158  C    0.186077
   159  O   -0.435951
   160  O   -0.439039
   161  H    0.145938
   162  H   -0.016595
   163  H    0.050319
   164  H    0.031088
   165  H   -0.023840
   166  H   -0.012523
   167  N   -0.163698
   168  C    0.148676
   169  H    0.022976
   170  H    0.012366
   171  H    0.026500
   172  H    0.134643
   173  Ca   1.297334
   174  O   -0.340828
   175  H    0.183705
   176  H    0.173306
 Sum of Mulliken charges =  -0.00000

 Dipole moment (field-independent basis, Debye):
    X=             32.0907    Y=              5.4546    Z=              5.6493  Tot=             33.0376
 Quadrupole moment (field-independent basis, Debye-Ang):
   XX=           -638.7605   YY=           -438.9101   ZZ=           -510.0729
   XY=            109.3703   XZ=             30.8875   YZ=            121.3809

 ESP charges:
               1
     1  C   -0.473235
     2  C    0.884221
     3  O   -0.661838
     4  H    0.138021
     5  H    0.111953
     6  H    0.114956
     7  N   -0.852998
     8  C    0.451546
     9  C    0.456862
    10  O   -0.554882
    11  C   -0.436928
    12  C    0.931382
    13  O   -0.726819
    14  O   -0.914671
    15  H    0.382280
    16  H   -0.000273
    17  H    0.107686
    18  H    0.068192
    19  N   -0.253175
    20  C   -0.207163
    21  C    0.685812
    22  O   -0.588044
    23  C   -0.056769
    24  C    0.102609
    25  C   -0.331256
    26  C    0.262069
    27  N   -0.440423
    28  H    0.247912
    29  H    0.087816
    30  H    0.062399
    31  H    0.036965
    32  H    0.026736
    33  H    0.026414
    34  H    0.103526
    35  H    0.084272
    36  H    0.056915
    37  H    0.013718
    38  H    0.333902
    39  H    0.348443
    40  H    0.338598
    41  N   -0.501522
    42  C    0.014278
    43  C    0.378533
    44  O   -0.514395
    45  C   -0.199109
    46  C    0.862115
    47  O   -0.824540
    48  O   -0.780229
    49  H    0.324008
    50  H    0.137067
    51  H    0.068390
    52  H    0.064032
    53  N   -0.122382
    54  C   -0.359297
    55  C    0.621924
    56  O   -0.593385
    57  H    0.201852
    58  H    0.157604
    59  H    0.146074
    60  N   -0.338840
    61  C   -0.070669
    62  C    0.349589
    63  O   -0.501160
    64  C   -0.272688
    65  C    0.824748
    66  N   -0.859947
    67  O   -0.770124
    68  H    0.352504
    69  H    0.148997
    70  H    0.131363
    71  H    0.081807
    72  H    0.380029
    73  H    0.400983
    74  N   -0.021809
    75  C   -0.536451
    76  C    0.870968
    77  O   -0.618412
    78  H    0.225250
    79  H    0.176668
    80  H    0.181103
    81  N   -0.707378
    82  C    0.095851
    83  C    0.669925
    84  O   -0.624592
    85  C   -0.023113
    86  C   -0.155832
    87  C   -0.023339
    88  C    0.056779
    89  C   -0.339852
    90  C   -0.446628
    91  C    0.480191
    92  O   -0.574181
    93  H    0.526095
    94  H    0.052779
    95  H    0.012754
    96  H    0.017209
    97  H    0.110378
    98  H    0.103805
    99  H    0.193822
   100  H    0.168880
   101  H    0.397715
   102  N   -0.633331
   103  C   -0.117853
   104  C    0.730002
   105  O   -0.573539
   106  C    0.237958
   107  C    0.212203
   108  C   -0.399558
   109  C   -0.422745
   110  H    0.335304
   111  H    0.085876
   112  H   -0.011582
   113  H   -0.025034
   114  H    0.047292
   115  H    0.092361
   116  H    0.062543
   117  H    0.104849
   118  H    0.089544
   119  H    0.099841
   120  H    0.093915
   121  N   -0.443532
   122  C   -0.025544
   123  C    0.562794
   124  O   -0.472038
   125  C    0.030849
   126  O   -0.555314
   127  H    0.327625
   128  H    0.064573
   129  H    0.054021
   130  H    0.050025
   131  H    0.451295
   132  N   -0.438954
   133  C    0.039004
   134  C    0.645023
   135  O   -0.564934
   136  C   -0.392031
   137  H    0.283834
   138  H    0.112414
   139  H    0.106034
   140  H    0.143825
   141  H    0.121077
   142  N   -0.571846
   143  C    0.126780
   144  C    0.276534
   145  O   -0.521057
   146  C   -0.272922
   147  H    0.338699
   148  H    0.116495
   149  H    0.074063
   150  H    0.106316
   151  H    0.085545
   152  N    0.192968
   153  C   -0.419580
   154  C    0.593339
   155  O   -0.595919
   156  C    0.028348
   157  C   -0.077746
   158  C    0.739284
   159  O   -0.713104
   160  O   -0.742946
   161  H    0.099446
   162  H    0.157554
   163  H    0.087642
   164  H   -0.044547
   165  H   -0.043063
   166  H    0.031416
   167  N   -0.147721
   168  C   -0.214676
   169  H    0.098454
   170  H    0.087911
   171  H    0.101644
   172  H    0.120226
   173  Ca   1.654884
   174  O   -0.954837
   175  H    0.428520
   176  H    0.492881
 Sum of ESP charges =  -0.00000

 Normal termination of Gaussian 16 at Wed Sep 18 17:31:11 2019.
