 Gaussian 16, Revision A.03,
 Gaussian 16:  ES64L-G16RevA.03 25-Dec-2016

 ----------------------------------------------------------------------
 #b3lyp/svp scf=(tight,noincore) Test #IOP(5/87=12) Density=Current Pop
 =(MK,readradii) iop(6/33=2) iop(6/42=6)
 ----------------------------------------------------------------------

 ------------------
 holoCaM_loop3_49.0
 ------------------
 Symbolic Z-matrix:
 Charge =  0 Multiplicity = 1

                         Standard orientation:
 ---------------------------------------------------------------------
 Center     Atomic      Atomic             Coordinates (Angstroms)
 Number     Number       Type             X           Y           Z
 ---------------------------------------------------------------------
      1          6           0        1.325388    2.952258    5.760962
      2          6           0        1.122985    2.219246    4.434453
      3          8           0        2.057834    1.957914    3.694950
      4          1           0        1.790183    2.278605    6.480783
      5          1           0        1.970348    3.817039    5.604403
      6          1           0        0.360044    3.283367    6.145288
      7          7           0       -0.129540    2.014609    4.018034
      8          6           0       -0.522144    1.831223    2.636429
      9          6           0       -0.428639    3.156566    1.896955
     10          8           0       -1.053427    4.146011    2.270104
     11          6           0       -1.905960    1.172067    2.667531
     12          6           0       -2.547598    1.403054    1.302561
     13          8           0       -2.327268    0.436376    0.547187
     14          8           0       -3.026833    2.513872    0.975579
     15          1           0       -0.854155    2.151140    4.701622
     16          1           0        0.264022    1.237812    2.172093
     17          1           0       -2.631632    1.441900    3.441282
     18          1           0       -1.849652    0.100058    2.837902
     19          7           0        0.255678    3.194179    0.744699
     20          6           0        0.808168    4.414309    0.191672
     21          6           0        0.003329    5.030305   -0.943662
     22          8           0        0.522751    5.832508   -1.716560
     23          6           0        2.249260    4.077987   -0.190349
     24          6           0        3.244372    5.232056   -0.262312
     25          6           0        3.697873    5.617333    1.149813
     26          6           0        4.858776    6.595870    1.043180
     27          7           0        5.228693    7.290840    2.290368
     28          1           0        0.715237    2.350312    0.439423
     29          1           0        0.796778    5.090057    1.042457
     30          1           0        2.187547    3.722910   -1.214415
     31          1           0        2.628193    3.276433    0.453485
     32          1           0        2.983071    6.076762   -0.905347
     33          1           0        4.030436    4.738046   -0.823701
     34          1           0        4.011450    4.828833    1.824600
     35          1           0        2.808652    6.065658    1.593424
     36          1           0        4.517081    7.486117    0.514875
     37          1           0        5.711418    6.200377    0.503285
     38          1           0        4.445652    7.546706    2.877803
     39          1           0        5.690502    6.623358    2.891118
     40          1           0        5.829323    8.052586    2.009678
     41          7           0       -1.281436    4.671360   -0.920480
     42          6           0       -2.184799    5.129986   -1.955177
     43          6           0       -3.666718    5.245566   -1.663189
     44          8           0       -4.359461    6.013262   -2.338282
     45          6           0       -2.152867    4.215118   -3.178654
     46          6           0       -2.015128    2.724566   -2.905370
     47          8           0       -2.944408    1.885425   -2.875676
     48          8           0       -0.849669    2.317581   -2.695924
     49          1           0       -1.687710    4.010333   -0.275123
     50          1           0       -1.729997    6.018546   -2.384031
     51          1           0       -1.267228    4.435039   -3.766257
     52          1           0       -3.013942    4.363578   -3.825267
     53          7           0       -4.073615    4.418322   -0.709983
     54          6           0       -5.462634    4.338624   -0.294561
     55          6           0       -6.239302    3.073629   -0.609480
     56          8           0       -7.456255    3.183305   -0.459823
     57          1           0       -3.400477    3.720089   -0.399568
     58          1           0       -6.078067    5.102751   -0.769377
     59          1           0       -5.493626    4.560909    0.773910
     60          7           0       -5.597361    1.933195   -0.860122
     61          6           0       -6.457675    0.781721   -0.998926
     62          6           0       -6.527205   -0.051112    0.274830
     63          8           0       -7.466356   -0.845446    0.339091
     64          6           0       -6.218062   -0.091972   -2.230936
     65          6           0       -4.824511   -0.695587   -2.329241
     66          7           0       -4.497111   -1.290989   -3.480329
     67          8           0       -3.989210   -0.690640   -1.417293
     68          1           0       -4.610080    1.991776   -1.064923
     69          1           0       -7.496422    1.046842   -1.187912
     70          1           0       -6.395354    0.537181   -3.099978
     71          1           0       -6.989501   -0.852270   -2.162900
     72          1           0       -5.160539   -1.301419   -4.243516
     73          1           0       -3.566101   -1.675251   -3.523503
     74          7           0       -5.653876    0.182737    1.248077
     75          6           0       -5.430296   -0.640825    2.422835
     76          6           0       -4.692154   -1.958777    2.227264
     77          8           0       -4.956709   -2.892241    2.979830
     78          1           0       -4.885763    0.808355    1.058592
     79          1           0       -6.379773   -0.911549    2.887379
     80          1           0       -4.788483    0.006420    3.013978
     81          7           0       -3.780294   -2.081350    1.257941
     82          6           0       -2.879508   -3.206108    1.101393
     83          6           0       -1.449375   -2.791378    0.818873
     84          8           0       -1.165110   -2.193716   -0.218910
     85          6           0       -3.324608   -4.157625   -0.002509
     86          6           0       -4.765199   -4.614515    0.091562
     87          6           0       -5.640061   -4.372014   -0.975963
     88          6           0       -5.080724   -5.431567    1.184937
     89          6           0       -6.944062   -4.886307   -0.869732
     90          6           0       -6.398087   -5.861623    1.337273
     91          6           0       -7.303090   -5.627542    0.280733
     92          8           0       -8.627627   -5.921549    0.399317
     93          1           0       -3.562770   -1.259993    0.718259
     94          1           0       -2.888003   -3.857200    1.971857
     95          1           0       -2.762945   -5.093386    0.011167
     96          1           0       -3.129640   -3.645131   -0.940932
     97          1           0       -5.344125   -3.749890   -1.799118
     98          1           0       -4.265395   -5.655272    1.866842
     99          1           0       -7.690179   -4.817117   -1.644020
    100          1           0       -6.707022   -6.501543    2.156640
    101          1           0       -8.801493   -6.284135    1.273846
    102          7           0       -0.467180   -3.336263    1.539492
    103          6           0        0.916993   -2.908407    1.432230
    104          6           0        1.532442   -3.877141    0.439417
    105          8           0        1.444899   -5.068791    0.715113
    106          6           0        1.524123   -2.890656    2.829434
    107          6           0        0.963618   -1.620515    3.484853
    108          6           0        3.041110   -2.865945    2.814012
    109          6           0        1.299203   -1.663560    4.964322
    110          1           0       -0.763918   -3.956982    2.279597
    111          1           0        1.091582   -1.911920    1.009109
    112          1           0        1.197494   -3.780960    3.381043
    113          1           0       -0.114155   -1.506866    3.455029
    114          1           0        1.383376   -0.755324    2.969247
    115          1           0        3.595443   -3.066075    3.726406
    116          1           0        3.423492   -3.707559    2.234987
    117          1           0        3.450586   -1.939655    2.389846
    118          1           0        2.360400   -1.397639    4.957376
    119          1           0        0.805289   -0.855498    5.502917
    120          1           0        1.016448   -2.602447    5.435216
    121          7           0        2.211663   -3.378307   -0.591807
    122          6           0        3.206771   -4.010602   -1.432082
    123          6           0        4.610154   -3.648263   -0.954247
    124          8           0        4.737556   -2.835329   -0.036257
    125          6           0        2.958780   -3.632077   -2.887458
    126          8           0        3.204320   -2.245979   -3.008471
    127          1           0        2.269506   -2.365329   -0.612562
    128          1           0        3.129740   -5.093188   -1.335257
    129          1           0        1.895468   -3.779495   -3.086795
    130          1           0        3.562813   -4.190086   -3.605908
    131          1           0        2.358525   -1.805252   -2.915796
    132          7           0        5.631707   -4.285952   -1.516725
    133          6           0        6.993761   -4.170275   -1.031826
    134          6           0        7.650928   -2.820214   -1.234481
    135          8           0        8.457024   -2.426259   -0.386715
    136          6           0        7.742619   -5.325920   -1.683514
    137          1           0        5.406596   -4.999126   -2.198494
    138          1           0        7.023129   -4.418355    0.032924
    139          1           0        7.918978   -5.073437   -2.735726
    140          1           0        8.741057   -5.379228   -1.242515
    141          1           0        7.208708   -6.280181   -1.704132
    142          7           0        7.296413   -2.011442   -2.233633
    143          6           0        7.758723   -0.639918   -2.317249
    144          6           0        6.997499    0.270490   -1.368567
    145          8           0        7.473749    1.263430   -0.830186
    146          6           0        7.576013   -0.058123   -3.710817
    147          1           0        6.633682   -2.324023   -2.926079
    148          1           0        8.826088   -0.561883   -2.096246
    149          1           0        6.533885   -0.142689   -4.040541
    150          1           0        7.720655    1.020857   -3.679518
    151          1           0        8.325217   -0.484324   -4.385092
    152          7           0        5.813121   -0.188571   -0.955514
    153          6           0        5.077056    0.531479    0.061951
    154          6           0        5.496620    0.174794    1.485939
    155          8           0        5.593040    1.024241    2.365111
    156          6           0        3.562560    0.396664   -0.100310
    157          6           0        3.011020    0.711413   -1.481590
    158          6           0        1.558585    0.274905   -1.495429
    159          8           0        0.756849    0.776798   -0.679693
    160          8           0        1.231894   -0.603684   -2.318688
    161          1           0        5.376675   -1.000262   -1.373214
    162          1           0        5.215060    1.599633   -0.097115
    163          1           0        3.061816    0.999043    0.662445
    164          1           0        3.395587   -0.654079    0.129167
    165          1           0        3.592966    0.191357   -2.249757
    166          1           0        3.055112    1.793739   -1.596163
    167          7           0        5.864033   -1.083866    1.729622
    168          6           0        6.510304   -1.574640    2.926399
    169          1           0        5.778329   -2.088495    3.549211
    170          1           0        7.304835   -2.268530    2.651975
    171          1           0        6.933834   -0.737690    3.480954
    172          1           0        5.581901   -1.752592    1.034706
    173         20           0       -1.352022   -0.038716   -1.729122
    174          8           0       -1.380425   -0.158411   -4.474985
    175          1           0       -2.115104    0.035957   -5.058225
    176          1           0       -0.645832   -0.309883   -5.069820
 ---------------------------------------------------------------------

 SCF Done:  E(RB3LYP) =  -5333.57604827     A.U. after   20 cycles

 The electronic state is 1-A.
 Alpha  occ. eigenvalues -- -145.34696 -19.16282 -19.13998 -19.13882 -19.12793
 Alpha  occ. eigenvalues --  -19.11390 -19.11127 -19.10775 -19.09084 -19.09054
 Alpha  occ. eigenvalues --  -19.08591 -19.08383 -19.08236 -19.07397 -19.06505
 Alpha  occ. eigenvalues --  -19.06276 -19.05896 -19.05789 -19.05721 -19.05666
 Alpha  occ. eigenvalues --  -19.04941 -19.04385 -19.03428 -19.02373 -15.40475
 Alpha  occ. eigenvalues --  -14.57589 -14.39855 -14.37588 -14.36759 -14.36258
 Alpha  occ. eigenvalues --  -14.35875 -14.34290 -14.33953 -14.32285 -14.32147
 Alpha  occ. eigenvalues --  -14.31885 -14.31756 -14.31604 -14.31055 -14.30333
 Alpha  occ. eigenvalues --  -12.54093 -12.54048 -12.54027 -10.33524 -10.32077
 Alpha  occ. eigenvalues --  -10.30008 -10.29844 -10.29190 -10.27711 -10.27330
 Alpha  occ. eigenvalues --  -10.27249 -10.27248 -10.26401 -10.25625 -10.25540
 Alpha  occ. eigenvalues --  -10.25526 -10.25284 -10.25233 -10.25097 -10.24965
 Alpha  occ. eigenvalues --  -10.24756 -10.24439 -10.24037 -10.23753 -10.23384
 Alpha  occ. eigenvalues --  -10.22873 -10.22589 -10.22286 -10.22138 -10.22077
 Alpha  occ. eigenvalues --  -10.21826 -10.21489 -10.21107 -10.21067 -10.20348
 Alpha  occ. eigenvalues --  -10.20267 -10.20135 -10.19539 -10.19362 -10.19239
 Alpha  occ. eigenvalues --  -10.19153 -10.18968 -10.18344 -10.17945 -10.17787
 Alpha  occ. eigenvalues --  -10.17309 -10.17180 -10.17070 -10.17007 -10.16922
 Alpha  occ. eigenvalues --  -10.16791 -10.16782 -10.16666 -10.16549 -10.16383
 Alpha  occ. eigenvalues --  -10.16354 -10.13567  -1.77474  -1.12971  -1.07124
 Alpha  occ. eigenvalues --   -1.05725  -1.05180  -1.04993  -1.04136  -1.04010
 Alpha  occ. eigenvalues --   -1.03884  -1.02989  -1.02680  -1.02327  -1.02195
 Alpha  occ. eigenvalues --   -1.01966  -1.01894  -1.01588  -1.00497  -1.00032
 Alpha  occ. eigenvalues --   -0.99622  -0.99307  -0.99029  -0.98922  -0.98067
 Alpha  occ. eigenvalues --   -0.97964  -0.96952  -0.96812  -0.93910  -0.93701
 Alpha  occ. eigenvalues --   -0.92914  -0.92537  -0.91276  -0.91042  -0.90841
 Alpha  occ. eigenvalues --   -0.90836  -0.90159  -0.89793  -0.89143  -0.88892
 Alpha  occ. eigenvalues --   -0.88112  -0.87779  -0.87090  -0.87050  -0.86681
 Alpha  occ. eigenvalues --   -0.82610  -0.82094  -0.81353  -0.80032  -0.79291
 Alpha  occ. eigenvalues --   -0.77870  -0.77445  -0.77116  -0.77020  -0.76801
 Alpha  occ. eigenvalues --   -0.75343  -0.74221  -0.73569  -0.72215  -0.72163
 Alpha  occ. eigenvalues --   -0.71806  -0.71712  -0.71551  -0.70614  -0.70570
 Alpha  occ. eigenvalues --   -0.69193  -0.69060  -0.68642  -0.67666  -0.67630
 Alpha  occ. eigenvalues --   -0.66713  -0.65388  -0.65265  -0.64595  -0.64146
 Alpha  occ. eigenvalues --   -0.63497  -0.62720  -0.61976  -0.61612  -0.60879
 Alpha  occ. eigenvalues --   -0.60364  -0.60326  -0.60062  -0.59449  -0.59154
 Alpha  occ. eigenvalues --   -0.59014  -0.58849  -0.58570  -0.57525  -0.57211
 Alpha  occ. eigenvalues --   -0.56985  -0.56548  -0.56293  -0.55893  -0.55733
 Alpha  occ. eigenvalues --   -0.55693  -0.55424  -0.55361  -0.55141  -0.55114
 Alpha  occ. eigenvalues --   -0.54211  -0.54105  -0.53905  -0.53575  -0.53299
 Alpha  occ. eigenvalues --   -0.52792  -0.52255  -0.52235  -0.51569  -0.51047
 Alpha  occ. eigenvalues --   -0.50942  -0.50547  -0.49981  -0.49707  -0.49404
 Alpha  occ. eigenvalues --   -0.49201  -0.49010  -0.48564  -0.48500  -0.48303
 Alpha  occ. eigenvalues --   -0.48151  -0.47603  -0.47507  -0.47220  -0.47194
 Alpha  occ. eigenvalues --   -0.47050  -0.46886  -0.46244  -0.46173  -0.46052
 Alpha  occ. eigenvalues --   -0.45838  -0.45529  -0.45369  -0.45353  -0.45212
 Alpha  occ. eigenvalues --   -0.44994  -0.44677  -0.44438  -0.44409  -0.44295
 Alpha  occ. eigenvalues --   -0.43962  -0.43864  -0.43840  -0.43608  -0.43362
 Alpha  occ. eigenvalues --   -0.43137  -0.42990  -0.42837  -0.42740  -0.42541
 Alpha  occ. eigenvalues --   -0.42388  -0.42245  -0.42050  -0.41869  -0.41787
 Alpha  occ. eigenvalues --   -0.41618  -0.41583  -0.41443  -0.41273  -0.41192
 Alpha  occ. eigenvalues --   -0.41002  -0.40937  -0.40868  -0.40720  -0.40664
 Alpha  occ. eigenvalues --   -0.40366  -0.40262  -0.40162  -0.40006  -0.39916
 Alpha  occ. eigenvalues --   -0.39782  -0.39494  -0.39322  -0.39173  -0.38872
 Alpha  occ. eigenvalues --   -0.38830  -0.38689  -0.38611  -0.38529  -0.38479
 Alpha  occ. eigenvalues --   -0.38412  -0.38200  -0.37886  -0.37707  -0.37659
 Alpha  occ. eigenvalues --   -0.37395  -0.37278  -0.37188  -0.37024  -0.36898
 Alpha  occ. eigenvalues --   -0.36779  -0.36367  -0.36293  -0.36042  -0.35999
 Alpha  occ. eigenvalues --   -0.35905  -0.35802  -0.35657  -0.35454  -0.35162
 Alpha  occ. eigenvalues --   -0.35081  -0.34866  -0.34806  -0.34639  -0.34602
 Alpha  occ. eigenvalues --   -0.34540  -0.33917  -0.33735  -0.33638  -0.33343
 Alpha  occ. eigenvalues --   -0.33284  -0.33172  -0.32873  -0.32787  -0.32228
 Alpha  occ. eigenvalues --   -0.32155  -0.32007  -0.31962  -0.31760  -0.31214
 Alpha  occ. eigenvalues --   -0.31202  -0.30928  -0.30597  -0.30348  -0.29799
 Alpha  occ. eigenvalues --   -0.29134  -0.28946  -0.28761  -0.27752  -0.27597
 Alpha  occ. eigenvalues --   -0.27298  -0.26732  -0.26513  -0.26357  -0.26275
 Alpha  occ. eigenvalues --   -0.26006  -0.25876  -0.25176  -0.24959  -0.24803
 Alpha  occ. eigenvalues --   -0.24513  -0.24367  -0.24281  -0.24042  -0.23853
 Alpha  occ. eigenvalues --   -0.23815  -0.23651  -0.23168  -0.22710  -0.22357
 Alpha  occ. eigenvalues --   -0.22213  -0.21911  -0.21845  -0.21372  -0.21260
 Alpha  occ. eigenvalues --   -0.21258  -0.20992  -0.20588  -0.20277  -0.19696
 Alpha  occ. eigenvalues --   -0.19649  -0.19430  -0.18160
 Alpha virt. eigenvalues --   -0.09949  -0.03652  -0.03205  -0.01928  -0.01003
 Alpha virt. eigenvalues --   -0.00764   0.00021   0.00526   0.00577   0.00672
 Alpha virt. eigenvalues --    0.01105   0.01761   0.01828   0.02100   0.02699

 Mulliken charges:
               1
     1  C    0.071391
     2  C    0.014681
     3  O   -0.288604
     4  H    0.036916
     5  H    0.018694
     6  H    0.002238
     7  N   -0.133353
     8  C    0.159987
     9  C    0.025028
    10  O   -0.280180
    11  C    0.140169
    12  C    0.105559
    13  O   -0.452047
    14  O   -0.379436
    15  H    0.113768
    16  H    0.006517
    17  H   -0.010711
    18  H   -0.014314
    19  N   -0.169603
    20  C    0.124745
    21  C    0.116615
    22  O   -0.297271
    23  C   -0.016251
    24  C    0.026373
    25  C   -0.017251
    26  C    0.004371
    27  N    0.083834
    28  H    0.145875
    29  H   -0.008259
    30  H    0.052351
    31  H    0.030920
    32  H    0.030751
    33  H    0.003897
    34  H    0.049538
    35  H    0.021744
    36  H    0.039366
    37  H    0.090519
    38  H    0.190439
    39  H    0.190100
    40  H    0.200744
    41  N   -0.101651
    42  C    0.053296
    43  C    0.079840
    44  O   -0.289056
    45  C    0.156454
    46  C    0.041492
    47  O   -0.425410
    48  O   -0.438785
    49  H    0.151656
    50  H    0.001417
    51  H   -0.005909
    52  H   -0.001242
    53  N   -0.179027
    54  C    0.234106
    55  C    0.024281
    56  O   -0.301816
    57  H    0.147370
    58  H    0.031571
    59  H    0.033642
    60  N   -0.145408
    61  C    0.139393
    62  C    0.048347
    63  O   -0.283670
    64  C    0.044369
    65  C    0.086717
    66  N   -0.042207
    67  O   -0.330962
    68  H    0.151433
    69  H    0.028566
    70  H    0.031950
    71  H    0.050376
    72  H    0.126113
    73  H    0.114681
    74  N   -0.141150
    75  C    0.229738
    76  C    0.018723
    77  O   -0.288819
    78  H    0.139601
    79  H    0.039096
    80  H    0.011697
    81  N   -0.138615
    82  C    0.116468
    83  C    0.161638
    84  O   -0.379985
    85  C    0.137507
    86  C   -0.021789
    87  C    0.014276
    88  C    0.041438
    89  C    0.010298
    90  C   -0.019770
    91  C    0.128222
    92  O   -0.198918
    93  H    0.162547
    94  H   -0.024321
    95  H    0.001441
    96  H   -0.039782
    97  H   -0.058756
    98  H   -0.032289
    99  H   -0.033182
   100  H   -0.042035
   101  H    0.168970
   102  N   -0.105614
   103  C    0.132354
   104  C    0.069054
   105  O   -0.290039
   106  C   -0.079789
   107  C   -0.023565
   108  C    0.032065
   109  C    0.053231
   110  H    0.133099
   111  H    0.005612
   112  H   -0.017941
   113  H   -0.007412
   114  H    0.037348
   115  H    0.011848
   116  H    0.003064
   117  H    0.031749
   118  H    0.016326
   119  H   -0.012252
   120  H    0.004455
   121  N   -0.112692
   122  C    0.078635
   123  C    0.101154
   124  O   -0.288409
   125  C    0.252586
   126  O   -0.354615
   127  H    0.129193
   128  H    0.019624
   129  H    0.019127
   130  H   -0.011083
   131  H    0.176119
   132  N   -0.119210
   133  C    0.096242
   134  C    0.078544
   135  O   -0.266028
   136  C    0.016518
   137  H    0.123798
   138  H    0.033852
   139  H    0.002109
   140  H    0.046540
   141  H    0.033527
   142  N   -0.130531
   143  C    0.098035
   144  C    0.062274
   145  O   -0.275462
   146  C    0.036429
   147  H    0.114643
   148  H    0.028260
   149  H    0.015298
   150  H    0.025975
   151  H    0.026807
   152  N   -0.147766
   153  C    0.153074
   154  C    0.071687
   155  O   -0.289443
   156  C   -0.088586
   157  C    0.143672
   158  C    0.186831
   159  O   -0.426825
   160  O   -0.441197
   161  H    0.120101
   162  H   -0.024993
   163  H    0.047606
   164  H   -0.028786
   165  H   -0.015401
   166  H   -0.013827
   167  N   -0.166091
   168  C    0.144352
   169  H   -0.000965
   170  H    0.017814
   171  H    0.026002
   172  H    0.124073
   173  Ca   1.256772
   174  O   -0.269640
   175  H    0.169658
   176  H    0.176998
 Sum of Mulliken charges =  -0.00000

 Dipole moment (field-independent basis, Debye):
    X=             28.0460    Y=              4.9033    Z=              0.4000  Tot=             28.4742
 Quadrupole moment (field-independent basis, Debye-Ang):
   XX=           -607.6661   YY=           -421.1706   ZZ=           -487.2255
   XY=            145.5006   XZ=             14.0303   YZ=            112.6033

 ESP charges:
               1
     1  C   -0.444108
     2  C    0.771481
     3  O   -0.599058
     4  H    0.121077
     5  H    0.120617
     6  H    0.097372
     7  N   -0.624367
     8  C    0.059100
     9  C    0.578015
    10  O   -0.556148
    11  C   -0.217393
    12  C    0.894083
    13  O   -0.757575
    14  O   -0.706181
    15  H    0.326192
    16  H    0.023180
    17  H    0.077072
    18  H    0.052178
    19  N   -0.361154
    20  C   -0.193199
    21  C    0.627901
    22  O   -0.556482
    23  C    0.387796
    24  C   -0.357301
    25  C   -0.017187
    26  C    0.173512
    27  N   -0.432281
    28  H    0.248606
    29  H    0.089922
    30  H    0.009592
    31  H   -0.023180
    32  H    0.104081
    33  H    0.074622
    34  H    0.040519
    35  H    0.039416
    36  H    0.044483
    37  H    0.060838
    38  H    0.340798
    39  H    0.332616
    40  H    0.342677
    41  N   -0.422167
    42  C   -0.053206
    43  C    0.468233
    44  O   -0.547117
    45  C   -0.264790
    46  C    0.754776
    47  O   -0.757621
    48  O   -0.711379
    49  H    0.209818
    50  H    0.120291
    51  H    0.088585
    52  H    0.088765
    53  N   -0.247552
    54  C   -0.123213
    55  C    0.581674
    56  O   -0.578627
    57  H    0.336211
    58  H    0.104414
    59  H    0.080470
    60  N   -0.378487
    61  C    0.118562
    62  C    0.378801
    63  O   -0.491216
    64  C   -0.190845
    65  C    0.660034
    66  N   -0.772579
    67  O   -0.384486
    68  H    0.168990
    69  H    0.094183
    70  H    0.081655
    71  H    0.066089
    72  H    0.354568
    73  H    0.338931
    74  N   -0.125506
    75  C   -0.302950
    76  C    0.630029
    77  O   -0.569574
    78  H    0.126341
    79  H    0.151981
    80  H    0.103607
    81  N   -0.128045
    82  C   -0.029640
    83  C    0.682729
    84  O   -0.630952
    85  C    0.069744
    86  C    0.300402
    87  C   -0.484604
    88  C   -0.455624
    89  C    0.077397
    90  C    0.061465
    91  C    0.050168
    92  O   -0.496681
    93  H   -0.076146
    94  H    0.007861
    95  H   -0.001745
    96  H   -0.038798
    97  H    0.175553
    98  H    0.212493
    99  H    0.097460
   100  H    0.064541
   101  H    0.403009
   102  N   -0.687887
   103  C    0.339081
   104  C    0.661570
   105  O   -0.574723
   106  C   -0.601690
   107  C    0.519350
   108  C    0.227960
   109  C   -0.364171
   110  H    0.366583
   111  H    0.018515
   112  H    0.139239
   113  H   -0.078549
   114  H   -0.020089
   115  H   -0.003289
   116  H   -0.015252
   117  H   -0.041486
   118  H    0.054279
   119  H    0.058166
   120  H    0.086855
   121  N   -0.347982
   122  C   -0.005116
   123  C    0.511350
   124  O   -0.406795
   125  C    0.115166
   126  O   -0.570193
   127  H    0.054767
   128  H    0.048666
   129  H    0.057254
   130  H    0.027274
   131  H    0.389164
   132  N   -0.422429
   133  C    0.086025
   134  C    0.589313
   135  O   -0.552352
   136  C   -0.291060
   137  H    0.295701
   138  H    0.091695
   139  H    0.061369
   140  H    0.106543
   141  H    0.100502
   142  N   -0.546360
   143  C    0.290265
   144  C    0.192001
   145  O   -0.505169
   146  C   -0.407215
   147  H    0.300048
   148  H    0.079631
   149  H    0.100106
   150  H    0.133358
   151  H    0.104346
   152  N    0.252138
   153  C   -0.405984
   154  C    0.622133
   155  O   -0.578205
   156  C   -0.061765
   157  C   -0.128338
   158  C    0.641778
   159  O   -0.655418
   160  O   -0.610435
   161  H    0.067072
   162  H    0.131688
   163  H    0.124697
   164  H    0.032698
   165  H    0.004027
   166  H    0.035099
   167  N   -0.188074
   168  C   -0.138793
   169  H    0.041827
   170  H    0.065480
   171  H    0.094273
   172  H    0.111089
   173  Ca   1.541319
   174  O   -0.850721
   175  H    0.426895
   176  H    0.422769
 Sum of ESP charges =   0.00000

 Normal termination of Gaussian 16 at Wed Sep 18 20:01:14 2019.
