 Gaussian 16, Revision A.03,
 Gaussian 16:  ES64L-G16RevA.03 25-Dec-2016

 ----------------------------------------------------------------------
 #b3lyp/svp scf=(tight,noincore) Test #IOP(5/87=12) Density=Current Pop
 =(MK,readradii) iop(6/33=2) iop(6/42=6)
 ----------------------------------------------------------------------

 ------------------
 holoCaM_loop3_53.0
 ------------------
 Symbolic Z-matrix:
 Charge =  0 Multiplicity = 1

                         Standard orientation:
 ---------------------------------------------------------------------
 Center     Atomic      Atomic             Coordinates (Angstroms)
 Number     Number       Type             X           Y           Z
 ---------------------------------------------------------------------
      1          6           0        2.971280    3.084276    5.028133
      2          6           0        2.346122    2.633381    3.723652
      3          8           0        2.971433    2.679443    2.654884
      4          1           0        4.055290    3.121990    4.916968
      5          1           0        2.597922    4.075170    5.286718
      6          1           0        2.712251    2.379880    5.817828
      7          7           0        1.042663    2.332923    3.695014
      8          6           0        0.265684    2.408536    2.481307
      9          6           0        0.165637    3.853600    2.007305
     10          8           0       -0.130324    4.740662    2.805132
     11          6           0       -1.112623    1.769732    2.600046
     12          6           0       -2.020856    1.852689    1.382002
     13          8           0       -2.102355    0.870886    0.618050
     14          8           0       -2.695193    2.881372    1.119936
     15          1           0        0.545115    2.319606    4.572720
     16          1           0        0.823161    1.805503    1.766764
     17          1           0       -1.605584    2.146505    3.492196
     18          1           0       -0.931445    0.708164    2.812997
     19          7           0        0.429328    4.071674    0.714165
     20          6           0        0.715997    5.330720    0.073288
     21          6           0       -0.257639    5.738077   -1.037114
     22          8           0       -0.226015    6.917337   -1.380693
     23          6           0        2.167523    5.301749   -0.394614
     24          6           0        3.282189    5.356847    0.643357
     25          6           0        3.091353    6.209617    1.890821
     26          6           0        4.350225    6.359337    2.736826
     27          7           0        4.117845    7.058731    4.013442
     28          1           0        0.654436    3.266616    0.147325
     29          1           0        0.594373    6.120348    0.802463
     30          1           0        2.339245    6.171244   -1.029429
     31          1           0        2.478695    4.477532   -1.039082
     32          1           0        4.244770    5.538355    0.157259
     33          1           0        3.418385    4.347048    1.037130
     34          1           0        2.379750    5.683949    2.522402
     35          1           0        2.721601    7.142119    1.471032
     36          1           0        5.071651    6.949616    2.171039
     37          1           0        4.920034    5.440192    2.843089
     38          1           0        4.901633    6.968017    4.649719
     39          1           0        3.977925    8.061434    3.950933
     40          1           0        3.283332    6.667468    4.418906
     41          7           0       -1.116308    4.870651   -1.583061
     42          6           0       -1.991856    5.119284   -2.702703
     43          6           0       -3.479583    4.973116   -2.381141
     44          8           0       -4.338139    5.299324   -3.191925
     45          6           0       -1.554133    4.272826   -3.894428
     46          6           0       -1.513731    2.766431   -3.725189
     47          8           0       -1.921639    2.203169   -2.687092
     48          8           0       -1.229203    1.988675   -4.660572
     49          1           0       -1.144883    3.899765   -1.301699
     50          1           0       -1.748153    6.132782   -3.012430
     51          1           0       -0.531971    4.591177   -4.107352
     52          1           0       -2.245412    4.433120   -4.722279
     53          7           0       -3.904083    4.594510   -1.173848
     54          6           0       -5.265739    4.506349   -0.672728
     55          6           0       -6.101802    3.257622   -0.911432
     56          8           0       -7.293706    3.146674   -0.651900
     57          1           0       -3.275151    4.261685   -0.457558
     58          1           0       -5.871836    5.315869   -1.088451
     59          1           0       -5.234089    4.657468    0.400706
     60          7           0       -5.391017    2.210694   -1.345166
     61          6           0       -6.010519    0.922135   -1.587721
     62          6           0       -6.216840    0.049656   -0.349007
     63          8           0       -7.129102   -0.775627   -0.423731
     64          6           0       -5.333162    0.240047   -2.766892
     65          6           0       -4.478921   -0.979313   -2.438663
     66          7           0       -4.706710   -2.147645   -3.034073
     67          8           0       -3.708899   -0.964750   -1.484224
     68          1           0       -4.388325    2.268792   -1.363439
     69          1           0       -7.021456    1.215308   -1.901022
     70          1           0       -4.690422    0.860079   -3.391188
     71          1           0       -6.103131   -0.034643   -3.494761
     72          1           0       -5.295290   -2.171169   -3.845689
     73          1           0       -4.087618   -2.940708   -2.914594
     74          7           0       -5.455142    0.266833    0.716239
     75          6           0       -5.727806   -0.348160    2.000777
     76          6           0       -4.941456   -1.636811    2.214159
     77          8           0       -5.325811   -2.435350    3.063339
     78          1           0       -4.788080    1.020989    0.643594
     79          1           0       -6.792709   -0.584753    2.054677
     80          1           0       -5.345701    0.407233    2.691413
     81          7           0       -3.920738   -1.911764    1.409215
     82          6           0       -3.132829   -3.114207    1.467788
     83          6           0       -1.657422   -2.760592    1.293921
     84          8           0       -1.331452   -1.908847    0.480242
     85          6           0       -3.629251   -4.055244    0.371606
     86          6           0       -5.018445   -4.569044    0.662553
     87          6           0       -6.141227   -3.932762    0.118674
     88          6           0       -5.145611   -5.736138    1.427942
     89          6           0       -7.408092   -4.366094    0.509924
     90          6           0       -6.431478   -6.269404    1.602507
     91          6           0       -7.603741   -5.572220    1.229634
     92          8           0       -8.840351   -6.028957    1.564876
     93          1           0       -3.714474   -1.177944    0.744412
     94          1           0       -3.274421   -3.750576    2.346415
     95          1           0       -2.909482   -4.879868    0.272984
     96          1           0       -3.616999   -3.508271   -0.571671
     97          1           0       -5.914494   -2.986840   -0.368382
     98          1           0       -4.233397   -6.180001    1.799091
     99          1           0       -8.315462   -3.834191    0.279577
    100          1           0       -6.581511   -7.217885    2.092786
    101          1           0       -8.762514   -6.935998    1.846688
    102          7           0       -0.788338   -3.493591    1.996492
    103          6           0        0.624794   -3.242958    1.826662
    104          6           0        1.159756   -3.915832    0.568507
    105          8           0        1.199992   -5.146139    0.495516
    106          6           0        1.376526   -3.588720    3.116409
    107          6           0        1.046473   -2.669387    4.285850
    108          6           0        2.879574   -3.860406    3.122358
    109          6           0        1.639769   -1.263153    4.252605
    110          1           0       -1.115786   -4.282887    2.522599
    111          1           0        0.820888   -2.179789    1.727568
    112          1           0        0.791957   -4.470602    3.358409
    113          1           0        1.518361   -3.175208    5.127078
    114          1           0       -0.027977   -2.517784    4.409841
    115          1           0        3.357828   -2.923270    2.848046
    116          1           0        3.240729   -4.087232    4.121066
    117          1           0        3.094181   -4.634304    2.395773
    118          1           0        1.312595   -0.749276    5.155593
    119          1           0        2.705046   -1.305017    4.061732
    120          1           0        1.105767   -0.816726    3.415141
    121          7           0        1.762521   -3.178354   -0.376427
    122          6           0        2.525357   -3.704282   -1.480050
    123          6           0        4.032818   -3.814080   -1.264404
    124          8           0        4.504756   -3.409986   -0.198110
    125          6           0        2.429921   -2.775445   -2.691064
    126          8           0        3.081637   -1.587036   -2.301769
    127          1           0        1.803677   -2.186276   -0.195628
    128          1           0        2.126981   -4.652580   -1.843542
    129          1           0        1.364358   -2.586590   -2.842088
    130          1           0        2.922946   -3.227731   -3.551624
    131          1           0        2.427490   -1.197844   -1.721492
    132          7           0        4.745751   -4.485382   -2.164615
    133          6           0        6.179957   -4.652706   -2.019853
    134          6           0        6.971110   -3.348614   -2.126718
    135          8           0        7.925139   -3.225846   -1.369846
    136          6           0        6.655145   -5.595117   -3.124460
    137          1           0        4.291752   -5.025110   -2.896722
    138          1           0        6.408660   -5.101790   -1.055167
    139          1           0        6.383351   -5.201003   -4.100166
    140          1           0        7.730648   -5.695768   -3.170974
    141          1           0        6.184585   -6.579545   -3.070839
    142          7           0        6.502602   -2.402183   -2.946699
    143          6           0        6.955601   -1.029890   -2.987984
    144          6           0        6.674974   -0.270562   -1.694628
    145          8           0        7.462787    0.573362   -1.280692
    146          6           0        6.460555   -0.198019   -4.167230
    147          1           0        5.812801   -2.729519   -3.607476
    148          1           0        8.034597   -1.131075   -3.118089
    149          1           0        6.976509    0.756301   -4.239098
    150          1           0        6.648801   -0.752769   -5.085334
    151          1           0        5.377766   -0.133923   -4.100450
    152          7           0        5.578552   -0.571889   -1.004005
    153          6           0        5.257185    0.106941    0.233133
    154          6           0        5.984790   -0.493975    1.428997
    155          8           0        6.389569    0.269342    2.299974
    156          6           0        3.766914    0.212837    0.505124
    157          6           0        3.026445    1.111010   -0.489809
    158          6           0        1.538276    0.788123   -0.546361
    159          8           0        0.803878    1.694261   -0.996776
    160          8           0        1.143357   -0.394877   -0.651004
    161          1           0        4.950431   -1.230721   -1.441161
    162          1           0        5.563385    1.151943    0.229676
    163          1           0        3.589387    0.559442    1.530282
    164          1           0        3.248564   -0.735951    0.359131
    165          1           0        3.445526    0.977095   -1.478716
    166          1           0        3.119823    2.133828   -0.131168
    167          7           0        6.248069   -1.800438    1.417258
    168          6           0        7.036932   -2.579895    2.347657
    169          1           0        7.838954   -1.961157    2.750349
    170          1           0        6.401328   -2.925751    3.162623
    171          1           0        7.465870   -3.438400    1.830235
    172          1           0        5.800165   -2.388154    0.719210
    173         20           0       -1.145621   -0.009317   -1.627234
    174          8           0       -1.116432   -2.499707   -2.531228
    175          1           0       -0.529590   -2.708326   -3.259030
    176          1           0       -1.766571   -3.206282   -2.544314
 ---------------------------------------------------------------------

 SCF Done:  E(RB3LYP) =  -5333.56661233     A.U. after   18 cycles

 The electronic state is 1-A.
 Alpha  occ. eigenvalues -- -145.38379 -19.21535 -19.16132 -19.15122 -19.13098
 Alpha  occ. eigenvalues --  -19.12900 -19.11649 -19.11548 -19.11409 -19.10506
 Alpha  occ. eigenvalues --  -19.09720 -19.09683 -19.08662 -19.07427 -19.07277
 Alpha  occ. eigenvalues --  -19.06754 -19.06270 -19.05944 -19.05533 -19.04664
 Alpha  occ. eigenvalues --  -19.04322 -19.03956 -19.03401 -19.01315 -15.44127
 Alpha  occ. eigenvalues --  -14.57744 -14.39385 -14.38535 -14.37126 -14.37053
 Alpha  occ. eigenvalues --  -14.36770 -14.35840 -14.33323 -14.33309 -14.33284
 Alpha  occ. eigenvalues --  -14.32606 -14.32245 -14.31786 -14.31301 -14.30737
 Alpha  occ. eigenvalues --  -12.57742 -12.57711 -12.57679 -10.33188 -10.31690
 Alpha  occ. eigenvalues --  -10.31537 -10.30557 -10.29371 -10.29285 -10.29031
 Alpha  occ. eigenvalues --  -10.28603 -10.27518 -10.27110 -10.26212 -10.26016
 Alpha  occ. eigenvalues --  -10.25959 -10.25624 -10.25525 -10.25082 -10.24864
 Alpha  occ. eigenvalues --  -10.24791 -10.24378 -10.24068 -10.24059 -10.23573
 Alpha  occ. eigenvalues --  -10.23453 -10.23395 -10.22923 -10.22886 -10.22801
 Alpha  occ. eigenvalues --  -10.22533 -10.22180 -10.21753 -10.21589 -10.20958
 Alpha  occ. eigenvalues --  -10.20736 -10.20542 -10.20503 -10.19839 -10.19608
 Alpha  occ. eigenvalues --  -10.19577 -10.19497 -10.19496 -10.19014 -10.18889
 Alpha  occ. eigenvalues --  -10.18195 -10.17992 -10.17796 -10.17773 -10.17629
 Alpha  occ. eigenvalues --  -10.17561 -10.17539 -10.17312 -10.17239 -10.16824
 Alpha  occ. eigenvalues --  -10.16725 -10.15176  -1.80956  -1.12676  -1.08960
 Alpha  occ. eigenvalues --   -1.08653  -1.08202  -1.07097  -1.06739  -1.06232
 Alpha  occ. eigenvalues --   -1.05666  -1.04912  -1.04635  -1.04329  -1.03990
 Alpha  occ. eigenvalues --   -1.03535  -1.02604  -1.01333  -1.00820  -1.00572
 Alpha  occ. eigenvalues --   -1.00009  -0.99538  -0.99177  -0.98700  -0.98468
 Alpha  occ. eigenvalues --   -0.98340  -0.98040  -0.96066  -0.95038  -0.94035
 Alpha  occ. eigenvalues --   -0.93694  -0.93194  -0.93098  -0.92367  -0.91275
 Alpha  occ. eigenvalues --   -0.90794  -0.90190  -0.89805  -0.89255  -0.88907
 Alpha  occ. eigenvalues --   -0.87978  -0.87683  -0.86801  -0.86500  -0.86207
 Alpha  occ. eigenvalues --   -0.83190  -0.82364  -0.81580  -0.80240  -0.78991
 Alpha  occ. eigenvalues --   -0.78871  -0.78252  -0.77996  -0.77715  -0.77095
 Alpha  occ. eigenvalues --   -0.75621  -0.74556  -0.74488  -0.73689  -0.72653
 Alpha  occ. eigenvalues --   -0.72313  -0.72204  -0.71672  -0.71512  -0.70837
 Alpha  occ. eigenvalues --   -0.70354  -0.69574  -0.68794  -0.68165  -0.67530
 Alpha  occ. eigenvalues --   -0.67193  -0.66315  -0.65790  -0.65252  -0.64455
 Alpha  occ. eigenvalues --   -0.64315  -0.63110  -0.62961  -0.61665  -0.61426
 Alpha  occ. eigenvalues --   -0.61036  -0.60935  -0.60855  -0.60788  -0.60638
 Alpha  occ. eigenvalues --   -0.60008  -0.59669  -0.59148  -0.57982  -0.57839
 Alpha  occ. eigenvalues --   -0.57565  -0.57387  -0.57194  -0.56873  -0.56723
 Alpha  occ. eigenvalues --   -0.56462  -0.56357  -0.56061  -0.55886  -0.55096
 Alpha  occ. eigenvalues --   -0.54931  -0.54551  -0.54230  -0.54094  -0.53699
 Alpha  occ. eigenvalues --   -0.53207  -0.52878  -0.52346  -0.52052  -0.51911
 Alpha  occ. eigenvalues --   -0.51381  -0.51139  -0.50953  -0.50488  -0.50260
 Alpha  occ. eigenvalues --   -0.49943  -0.49694  -0.49628  -0.49215  -0.49015
 Alpha  occ. eigenvalues --   -0.48911  -0.48699  -0.48622  -0.48180  -0.47951
 Alpha  occ. eigenvalues --   -0.47822  -0.47694  -0.47476  -0.47362  -0.47294
 Alpha  occ. eigenvalues --   -0.47063  -0.46660  -0.46481  -0.46461  -0.45658
 Alpha  occ. eigenvalues --   -0.45640  -0.45337  -0.45236  -0.45041  -0.44670
 Alpha  occ. eigenvalues --   -0.44530  -0.44469  -0.44432  -0.44264  -0.44071
 Alpha  occ. eigenvalues --   -0.43821  -0.43654  -0.43599  -0.43357  -0.42918
 Alpha  occ. eigenvalues --   -0.42855  -0.42759  -0.42723  -0.42626  -0.42467
 Alpha  occ. eigenvalues --   -0.42401  -0.41819  -0.41711  -0.41698  -0.41605
 Alpha  occ. eigenvalues --   -0.41484  -0.41167  -0.41144  -0.41029  -0.40841
 Alpha  occ. eigenvalues --   -0.40696  -0.40619  -0.40554  -0.40503  -0.40219
 Alpha  occ. eigenvalues --   -0.40080  -0.40063  -0.40000  -0.39656  -0.39563
 Alpha  occ. eigenvalues --   -0.39521  -0.39406  -0.39257  -0.39133  -0.39009
 Alpha  occ. eigenvalues --   -0.38892  -0.38805  -0.38749  -0.38683  -0.38661
 Alpha  occ. eigenvalues --   -0.38497  -0.38392  -0.38108  -0.37999  -0.37939
 Alpha  occ. eigenvalues --   -0.37477  -0.37331  -0.37315  -0.37092  -0.36796
 Alpha  occ. eigenvalues --   -0.36427  -0.36376  -0.36349  -0.36243  -0.35941
 Alpha  occ. eigenvalues --   -0.35648  -0.35455  -0.35411  -0.35109  -0.34712
 Alpha  occ. eigenvalues --   -0.34598  -0.34406  -0.34335  -0.34247  -0.33876
 Alpha  occ. eigenvalues --   -0.33797  -0.33553  -0.33474  -0.33293  -0.33204
 Alpha  occ. eigenvalues --   -0.32951  -0.32490  -0.32247  -0.32060  -0.31907
 Alpha  occ. eigenvalues --   -0.31746  -0.31668  -0.30991  -0.30946  -0.30915
 Alpha  occ. eigenvalues --   -0.30533  -0.29195  -0.29040  -0.28721  -0.28599
 Alpha  occ. eigenvalues --   -0.28492  -0.27927  -0.27793  -0.27418  -0.27203
 Alpha  occ. eigenvalues --   -0.26457  -0.26041  -0.25906  -0.25749  -0.25665
 Alpha  occ. eigenvalues --   -0.25262  -0.25246  -0.25012  -0.24329  -0.24239
 Alpha  occ. eigenvalues --   -0.23893  -0.23729  -0.23333  -0.23032  -0.22381
 Alpha  occ. eigenvalues --   -0.22342  -0.22217  -0.22165  -0.21668  -0.21567
 Alpha  occ. eigenvalues --   -0.21344  -0.20825  -0.20470  -0.20322  -0.20163
 Alpha  occ. eigenvalues --   -0.20027  -0.18538  -0.16888
 Alpha virt. eigenvalues --   -0.09778  -0.04535  -0.04186  -0.03687  -0.01582
 Alpha virt. eigenvalues --   -0.01077  -0.00720  -0.00467  -0.00071   0.00006
 Alpha virt. eigenvalues --    0.00319   0.00411   0.00489   0.00949   0.01842

 Mulliken charges:
               1
     1  C    0.038157
     2  C    0.061717
     3  O   -0.299542
     4  H    0.034822
     5  H    0.006100
     6  H    0.038901
     7  N   -0.117770
     8  C    0.079676
     9  C    0.080740
    10  O   -0.312370
    11  C    0.130712
    12  C    0.101999
    13  O   -0.446205
    14  O   -0.382221
    15  H    0.110593
    16  H    0.007234
    17  H   -0.007769
    18  H   -0.006063
    19  N   -0.136685
    20  C    0.145185
    21  C    0.078145
    22  O   -0.301905
    23  C    0.051477
    24  C   -0.039747
    25  C   -0.043593
    26  C    0.015505
    27  N    0.084710
    28  H    0.150623
    29  H    0.000756
    30  H    0.001438
    31  H    0.018423
    32  H   -0.000687
    33  H    0.040402
    34  H    0.045010
    35  H    0.037977
    36  H    0.049414
    37  H    0.087673
    38  H    0.189801
    39  H    0.191530
    40  H    0.190469
    41  N   -0.149533
    42  C    0.138658
    43  C    0.079596
    44  O   -0.287573
    45  C    0.064635
    46  C    0.081919
    47  O   -0.475432
    48  O   -0.379640
    49  H    0.139855
    50  H    0.017643
    51  H    0.010004
    52  H    0.038579
    53  N   -0.155342
    54  C    0.210712
    55  C    0.030795
    56  O   -0.279209
    57  H    0.131944
    58  H    0.025707
    59  H    0.032858
    60  N   -0.179052
    61  C    0.143342
    62  C    0.062744
    63  O   -0.292390
    64  C    0.121647
    65  C    0.022672
    66  N   -0.012968
    67  O   -0.345981
    68  H    0.134147
    69  H    0.035683
    70  H    0.060280
    71  H   -0.003323
    72  H    0.128319
    73  H    0.110543
    74  N   -0.164179
    75  C    0.258184
    76  C   -0.008883
    77  O   -0.294439
    78  H    0.141370
    79  H    0.049529
    80  H    0.027099
    81  N   -0.138263
    82  C    0.123672
    83  C    0.141406
    84  O   -0.302961
    85  C    0.131574
    86  C   -0.071225
    87  C    0.059704
    88  C    0.033478
    89  C   -0.023607
    90  C   -0.039826
    91  C    0.149523
    92  O   -0.180164
    93  H    0.167303
    94  H   -0.008846
    95  H   -0.021606
    96  H   -0.060728
    97  H   -0.016405
    98  H   -0.049351
    99  H   -0.017451
   100  H   -0.060259
   101  H    0.168474
   102  N   -0.126768
   103  C    0.167278
   104  C    0.063021
   105  O   -0.299152
   106  C   -0.098411
   107  C   -0.007291
   108  C    0.094055
   109  C    0.007647
   110  H    0.129586
   111  H   -0.003788
   112  H   -0.031674
   113  H   -0.003946
   114  H   -0.011024
   115  H    0.016856
   116  H    0.004934
   117  H    0.029716
   118  H   -0.001253
   119  H    0.025232
   120  H    0.020126
   121  N   -0.116938
   122  C    0.047726
   123  C    0.123131
   124  O   -0.274657
   125  C    0.262767
   126  O   -0.334045
   127  H    0.162443
   128  H    0.006669
   129  H   -0.054005
   130  H   -0.004176
   131  H    0.173991
   132  N   -0.128522
   133  C    0.090453
   134  C    0.045796
   135  O   -0.246134
   136  C    0.029188
   137  H    0.123225
   138  H    0.027595
   139  H   -0.008552
   140  H    0.042011
   141  H    0.027967
   142  N   -0.131341
   143  C    0.090535
   144  C    0.055254
   145  O   -0.274197
   146  C    0.060508
   147  H    0.103322
   148  H    0.016696
   149  H    0.047996
   150  H    0.002595
   151  H    0.011820
   152  N   -0.153562
   153  C    0.151945
   154  C    0.045947
   155  O   -0.294992
   156  C    0.011461
   157  C    0.059874
   158  C    0.171582
   159  O   -0.399479
   160  O   -0.479726
   161  H    0.140294
   162  H   -0.004513
   163  H    0.025259
   164  H   -0.051364
   165  H    0.030904
   166  H    0.009579
   167  N   -0.162539
   168  C    0.136950
   169  H    0.025032
   170  H    0.002622
   171  H    0.021249
   172  H    0.135104
   173  Ca   1.300677
   174  O   -0.271738
   175  H    0.179067
   176  H    0.186510
 Sum of Mulliken charges =  -0.00000

 Dipole moment (field-independent basis, Debye):
    X=             20.2984    Y=              0.3019    Z=              8.5070  Tot=             22.0111
 Quadrupole moment (field-independent basis, Debye-Ang):
   XX=           -682.1399   YY=           -419.8503   ZZ=           -474.7487
   XY=            138.4546   XZ=             39.7569   YZ=            176.9094

 ESP charges:
               1
     1  C   -0.452401
     2  C    0.772252
     3  O   -0.594339
     4  H    0.132266
     5  H    0.102737
     6  H    0.121751
     7  N   -0.839216
     8  C    0.519286
     9  C    0.478263
    10  O   -0.568238
    11  C   -0.745023
    12  C    1.052187
    13  O   -0.962516
    14  O   -0.695770
    15  H    0.394984
    16  H    0.008661
    17  H    0.150553
    18  H    0.213806
    19  N   -0.315965
    20  C   -0.103002
    21  C    0.664629
    22  O   -0.595952
    23  C    0.050725
    24  C    0.096649
    25  C   -0.310727
    26  C    0.313254
    27  N   -0.574403
    28  H    0.309608
    29  H    0.082863
    30  H    0.005890
    31  H    0.004509
    32  H   -0.000260
    33  H    0.010732
    34  H    0.084936
    35  H    0.087360
    36  H    0.026211
    37  H    0.039189
    38  H    0.366954
    39  H    0.380094
    40  H    0.366270
    41  N   -0.419914
    42  C    0.049345
    43  C    0.406179
    44  O   -0.520021
    45  C   -0.316525
    46  C    0.842920
    47  O   -0.706943
    48  O   -0.752226
    49  H    0.171621
    50  H    0.119457
    51  H    0.081273
    52  H    0.111551
    53  N   -0.155174
    54  C   -0.315536
    55  C    0.586522
    56  O   -0.562747
    57  H    0.180422
    58  H    0.139443
    59  H    0.144220
    60  N   -0.275240
    61  C   -0.197361
    62  C    0.452379
    63  O   -0.538577
    64  C    0.005903
    65  C    0.496380
    66  N   -0.780798
    67  O   -0.620307
    68  H    0.218890
    69  H    0.167776
    70  H    0.079149
    71  H    0.044127
    72  H    0.373125
    73  H    0.381704
    74  N    0.054076
    75  C   -0.608971
    76  C    0.844544
    77  O   -0.559370
    78  H    0.147919
    79  H    0.232165
    80  H    0.177745
    81  N   -1.115645
    82  C    0.465333
    83  C    0.756428
    84  O   -0.713791
    85  C   -0.283335
    86  C    0.145049
    87  C   -0.411152
    88  C   -0.073791
    89  C   -0.123625
    90  C   -0.353757
    91  C    0.384543
    92  O   -0.537514
    93  H    0.750216
    94  H   -0.004438
    95  H    0.029547
    96  H    0.088712
    97  H    0.303805
    98  H    0.106684
    99  H    0.134874
   100  H    0.132314
   101  H    0.396513
   102  N   -0.918103
   103  C    0.533301
   104  C    0.453270
   105  O   -0.571049
   106  C    0.122524
   107  C   -0.043223
   108  C   -0.394551
   109  C   -0.090285
   110  H    0.393846
   111  H    0.023680
   112  H   -0.044946
   113  H    0.007734
   114  H   -0.000891
   115  H    0.121946
   116  H    0.127830
   117  H    0.093215
   118  H    0.042293
   119  H    0.020095
   120  H    0.025198
   121  N   -0.153931
   122  C   -0.069266
   123  C    0.485043
   124  O   -0.410400
   125  C    0.018226
   126  O   -0.456639
   127  H   -0.015157
   128  H    0.077346
   129  H    0.067033
   130  H    0.051710
   131  H    0.311658
   132  N   -0.410430
   133  C    0.072100
   134  C    0.545532
   135  O   -0.525441
   136  C   -0.303509
   137  H    0.289295
   138  H    0.094557
   139  H    0.055881
   140  H    0.118680
   141  H    0.097725
   142  N   -0.493769
   143  C    0.207031
   144  C    0.249724
   145  O   -0.508949
   146  C   -0.280375
   147  H    0.304380
   148  H    0.066122
   149  H    0.120428
   150  H    0.064324
   151  H    0.066924
   152  N    0.132453
   153  C   -0.300369
   154  C    0.563364
   155  O   -0.576016
   156  C   -0.009726
   157  C    0.110312
   158  C    0.532635
   159  O   -0.700223
   160  O   -0.441359
   161  H    0.095213
   162  H    0.134441
   163  H    0.075753
   164  H   -0.137039
   165  H   -0.023364
   166  H   -0.008129
   167  N   -0.163713
   168  C   -0.158073
   169  H    0.092195
   170  H    0.043740
   171  H    0.080390
   172  H    0.137183
   173  Ca   1.527410
   174  O   -0.750711
   175  H    0.365994
   176  H    0.405000
 Sum of ESP charges =   0.00000

 Normal termination of Gaussian 16 at Wed Sep 18 20:09:53 2019.
