 Gaussian 16, Revision A.03,
 Gaussian 16:  ES64L-G16RevA.03 25-Dec-2016

 ----------------------------------------------------------------------
 #b3lyp/svp scf=(tight,noincore) Test #IOP(5/87=12) Density=Current Pop
 =(MK,readradii) iop(6/33=2) iop(6/42=6)
 ----------------------------------------------------------------------

 ------------------
 holoCaM_loop3_51.0
 ------------------
 Symbolic Z-matrix:
 Charge =  0 Multiplicity = 1

                         Standard orientation:
 ---------------------------------------------------------------------
 Center     Atomic      Atomic             Coordinates (Angstroms)
 Number     Number       Type             X           Y           Z
 ---------------------------------------------------------------------
      1          6           0        2.525430    2.423473    4.866360
      2          6           0        1.770021    2.336929    3.537124
      3          8           0        2.429355    2.390917    2.501236
      4          1           0        2.992489    1.462097    5.081214
      5          1           0        3.294191    3.193069    4.798581
      6          1           0        1.828209    2.675393    5.665161
      7          7           0        0.444335    2.375122    3.499757
      8          6           0       -0.375869    2.221789    2.316264
      9          6           0       -0.469255    3.506043    1.506776
     10          8           0       -1.337776    4.362938    1.667717
     11          6           0       -1.771529    1.752637    2.725445
     12          6           0       -2.711056    1.422037    1.577144
     13          8           0       -3.838788    0.985960    1.913382
     14          8           0       -2.381332    1.563314    0.380515
     15          1           0        0.007713    2.522858    4.408732
     16          1           0        0.012036    1.482418    1.626365
     17          1           0       -2.230964    2.510445    3.367977
     18          1           0       -1.649990    0.789818    3.220628
     19          7           0        0.527143    3.796118    0.657572
     20          6           0        0.697400    5.046649   -0.050159
     21          6           0       -0.317227    5.506889   -1.089683
     22          8           0       -0.216456    6.649173   -1.538273
     23          6           0        2.062910    5.102670   -0.724506
     24          6           0        3.271355    4.687505    0.113765
     25          6           0        3.414876    5.508324    1.381897
     26          6           0        4.647409    5.167256    2.214745
     27          7           0        4.755453    6.169962    3.284234
     28          1           0        1.337887    3.198973    0.617426
     29          1           0        0.532535    5.895890    0.605364
     30          1           0        2.303793    6.081281   -1.127488
     31          1           0        2.027937    4.391858   -1.556386
     32          1           0        4.107102    4.965903   -0.520603
     33          1           0        3.400729    3.617549    0.323185
     34          1           0        2.555871    5.295199    2.030348
     35          1           0        3.366976    6.560412    1.105822
     36          1           0        5.554967    5.170744    1.609826
     37          1           0        4.561905    4.171443    2.648733
     38          1           0        4.656851    7.111764    2.917239
     39          1           0        4.117458    6.098200    4.061416
     40          1           0        5.686814    6.291464    3.641452
     41          7           0       -1.256616    4.643995   -1.489009
     42          6           0       -2.401472    4.986490   -2.318588
     43          6           0       -3.684409    4.605454   -1.606210
     44          8           0       -4.746265    4.740045   -2.215592
     45          6           0       -2.238280    4.311617   -3.678520
     46          6           0       -2.220380    2.789386   -3.616139
     47          8           0       -2.158549    2.131244   -4.681375
     48          8           0       -1.991903    2.132774   -2.574238
     49          1           0       -1.206027    3.687030   -1.173636
     50          1           0       -2.439341    6.058066   -2.505111
     51          1           0       -1.248803    4.556797   -4.047062
     52          1           0       -3.020795    4.603388   -4.384665
     53          7           0       -3.675489    4.171571   -0.340285
     54          6           0       -4.853292    4.112653    0.501267
     55          6           0       -5.835250    2.990993    0.194290
     56          8           0       -7.033802    3.102229    0.447270
     57          1           0       -2.741675    4.068371    0.018658
     58          1           0       -5.459018    5.011925    0.416967
     59          1           0       -4.553945    4.051909    1.554074
     60          7           0       -5.364773    1.926606   -0.457578
     61          6           0       -6.257243    0.955423   -1.058578
     62          6           0       -6.601725   -0.272618   -0.245776
     63          8           0       -7.213709   -1.229149   -0.728398
     64          6           0       -5.742065    0.612512   -2.459829
     65          6           0       -4.588379   -0.378317   -2.501849
     66          7           0       -4.179790   -0.951756   -3.635525
     67          8           0       -3.926628   -0.565718   -1.477706
     68          1           0       -4.367435    1.801586   -0.538737
     69          1           0       -7.232517    1.423674   -1.168485
     70          1           0       -5.463165    1.488692   -3.042429
     71          1           0       -6.520309    0.112794   -3.026590
     72          1           0       -4.701178   -0.776074   -4.472956
     73          1           0       -3.414559   -1.624143   -3.615116
     74          7           0       -6.155963   -0.268774    1.012192
     75          6           0       -6.336618   -1.276155    2.045606
     76          6           0       -5.166261   -2.231365    2.213951
     77          8           0       -5.356009   -3.030175    3.124828
     78          1           0       -5.523320    0.473599    1.278922
     79          1           0       -7.302389   -1.782732    1.953594
     80          1           0       -6.256020   -0.759331    2.992758
     81          7           0       -4.131190   -2.227427    1.370201
     82          6           0       -3.060891   -3.200484    1.385021
     83          6           0       -1.729703   -2.459376    1.362730
     84          8           0       -1.505872   -1.468875    0.677669
     85          6           0       -3.271690   -4.195884    0.253985
     86          6           0       -4.645424   -4.815667    0.140739
     87          6           0       -5.437093   -4.312073   -0.901928
     88          6           0       -5.131709   -5.750352    1.049634
     89          6           0       -6.760301   -4.786731   -0.965315
     90          6           0       -6.440507   -6.240082    0.973396
     91          6           0       -7.250441   -5.743781   -0.065638
     92          8           0       -8.558899   -6.135319   -0.163283
     93          1           0       -4.093478   -1.499998    0.652689
     94          1           0       -3.141409   -3.765584    2.323253
     95          1           0       -2.575856   -5.030280    0.371024
     96          1           0       -2.906619   -3.726711   -0.657278
     97          1           0       -5.054938   -3.522296   -1.524190
     98          1           0       -4.486266   -6.163330    1.814260
     99          1           0       -7.371875   -4.432120   -1.786916
    100          1           0       -6.723742   -6.917081    1.768852
    101          1           0       -8.879410   -6.589435    0.616878
    102          7           0       -0.710774   -3.093374    1.965001
    103          6           0        0.655839   -2.651177    1.796091
    104          6           0        1.431614   -3.648812    0.941399
    105          8           0        1.281238   -4.850611    1.186280
    106          6           0        1.375655   -2.351158    3.099607
    107          6           0        0.578142   -1.430689    4.020427
    108          6           0        2.809820   -1.870578    2.906960
    109          6           0        0.795102   -1.606771    5.528546
    110          1           0       -0.856244   -4.003657    2.379276
    111          1           0        0.609480   -1.671761    1.326842
    112          1           0        1.444107   -3.323089    3.584853
    113          1           0       -0.498357   -1.575766    3.987214
    114          1           0        0.669759   -0.361819    3.818873
    115          1           0        3.244013   -1.886231    3.902466
    116          1           0        3.421760   -2.585593    2.346349
    117          1           0        2.849687   -0.870823    2.471643
    118          1           0        0.429834   -2.566554    5.894464
    119          1           0        1.872958   -1.737166    5.676272
    120          1           0        0.307479   -0.787056    6.043513
    121          7           0        2.278563   -3.186042    0.017753
    122          6           0        3.010654   -3.967422   -0.952808
    123          6           0        4.520927   -3.790149   -0.821090
    124          8           0        5.004855   -2.919591   -0.108881
    125          6           0        2.551690   -3.506414   -2.335025
    126          8           0        2.869348   -2.156531   -2.542653
    127          1           0        2.514057   -2.204720    0.033535
    128          1           0        2.777633   -5.030998   -0.846000
    129          1           0        1.476342   -3.556377   -2.501849
    130          1           0        3.054682   -4.043374   -3.141048
    131          1           0        2.329765   -1.630904   -1.943350
    132          7           0        5.271113   -4.576992   -1.601539
    133          6           0        6.704620   -4.508265   -1.413034
    134          6           0        7.343471   -3.151037   -1.642605
    135          8           0        8.257705   -2.748755   -0.918005
    136          6           0        7.234977   -5.677102   -2.248762
    137          1           0        4.791289   -5.273233   -2.163426
    138          1           0        6.929844   -4.747052   -0.374595
    139          1           0        8.290428   -5.891001   -2.106037
    140          1           0        6.646618   -6.480778   -1.810311
    141          1           0        6.989030   -5.531226   -3.302626
    142          7           0        6.837338   -2.350691   -2.580835
    143          6           0        7.331366   -1.013699   -2.863480
    144          6           0        7.193548   -0.058754   -1.694640
    145          8           0        8.068083    0.740604   -1.363556
    146          6           0        6.628997   -0.514832   -4.127288
    147          1           0        6.201159   -2.801767   -3.216528
    148          1           0        8.402986   -1.137965   -3.010073
    149          1           0        7.080720   -0.959451   -5.005730
    150          1           0        5.562190   -0.738613   -4.049542
    151          1           0        6.564859    0.571152   -4.196753
    152          7           0        6.014367   -0.294969   -1.105800
    153          6           0        5.517302    0.470164    0.022871
    154          6           0        6.208751    0.198692    1.357899
    155          8           0        6.505317    1.122743    2.116305
    156          6           0        3.998704    0.358848    0.146849
    157          6           0        3.245366    0.836031   -1.086431
    158          6           0        1.743075    0.567290   -1.086354
    159          8           0        1.208899   -0.559507   -1.134172
    160          8           0        0.937027    1.516215   -1.142272
    161          1           0        5.452354   -1.071621   -1.416532
    162          1           0        5.816460    1.492930   -0.218698
    163          1           0        3.679021    0.785023    1.101614
    164          1           0        3.653243   -0.666314    0.315959
    165          1           0        3.645739    0.417237   -2.006058
    166          1           0        3.371660    1.916136   -1.091081
    167          7           0        6.591140   -1.054342    1.591103
    168          6           0        7.382310   -1.478838    2.734979
    169          1           0        8.047185   -2.289352    2.436005
    170          1           0        7.974718   -0.639183    3.099281
    171          1           0        6.719403   -1.826458    3.526856
    172          1           0        6.182029   -1.718346    0.953979
    173         20           0       -1.251569    0.077972   -1.435029
    174          8           0       -0.337216    0.297955   -3.993529
    175          1           0       -0.146175   -0.154015   -4.821071
    176          1           0       -0.753319    1.121745   -4.266894
 ---------------------------------------------------------------------

 SCF Done:  E(RB3LYP) =  -5333.63302997     A.U. after   19 cycles

 The electronic state is 1-A.
 Alpha  occ. eigenvalues -- -145.36985 -19.14849 -19.13733 -19.13183 -19.13021
 Alpha  occ. eigenvalues --  -19.12929 -19.11208 -19.11023 -19.11009 -19.10831
 Alpha  occ. eigenvalues --  -19.10015 -19.09670 -19.09254 -19.08104 -19.07651
 Alpha  occ. eigenvalues --  -19.06874 -19.05584 -19.05452 -19.04490 -19.04189
 Alpha  occ. eigenvalues --  -19.04038 -19.03717 -19.03373 -19.01950 -15.42735
 Alpha  occ. eigenvalues --  -14.57865 -14.40152 -14.39122 -14.37465 -14.37222
 Alpha  occ. eigenvalues --  -14.37070 -14.36392 -14.34919 -14.34588 -14.33518
 Alpha  occ. eigenvalues --  -14.32314 -14.31818 -14.30123 -14.29174 -14.28986
 Alpha  occ. eigenvalues --  -12.56364 -12.56300 -12.56291 -10.33302 -10.32642
 Alpha  occ. eigenvalues --  -10.31948 -10.30965 -10.29964 -10.29707 -10.29521
 Alpha  occ. eigenvalues --  -10.27969 -10.27965 -10.27920 -10.26607 -10.26442
 Alpha  occ. eigenvalues --  -10.26170 -10.25887 -10.25851 -10.25740 -10.24392
 Alpha  occ. eigenvalues --  -10.24362 -10.23814 -10.23782 -10.23723 -10.23697
 Alpha  occ. eigenvalues --  -10.23181 -10.23167 -10.23070 -10.23061 -10.22865
 Alpha  occ. eigenvalues --  -10.22834 -10.22537 -10.22521 -10.22488 -10.22303
 Alpha  occ. eigenvalues --  -10.21321 -10.20642 -10.20321 -10.20240 -10.19793
 Alpha  occ. eigenvalues --  -10.19419 -10.19289 -10.19232 -10.19170 -10.19160
 Alpha  occ. eigenvalues --  -10.19042 -10.18766 -10.18251 -10.18189 -10.17998
 Alpha  occ. eigenvalues --  -10.17662 -10.17255 -10.17157 -10.17143 -10.17018
 Alpha  occ. eigenvalues --  -10.16400 -10.14991  -1.79628  -1.13244  -1.08149
 Alpha  occ. eigenvalues --   -1.07538  -1.07117  -1.07086  -1.06243  -1.05929
 Alpha  occ. eigenvalues --   -1.04612  -1.04080  -1.03851  -1.03740  -1.02588
 Alpha  occ. eigenvalues --   -1.02277  -1.02276  -1.01799  -1.00693  -0.99812
 Alpha  occ. eigenvalues --   -0.99165  -0.98856  -0.98824  -0.97659  -0.97178
 Alpha  occ. eigenvalues --   -0.97164  -0.96797  -0.96385  -0.95155  -0.94216
 Alpha  occ. eigenvalues --   -0.94149  -0.93774  -0.92846  -0.92066  -0.91433
 Alpha  occ. eigenvalues --   -0.90820  -0.89858  -0.89728  -0.89213  -0.89100
 Alpha  occ. eigenvalues --   -0.87597  -0.87269  -0.86865  -0.86249  -0.85307
 Alpha  occ. eigenvalues --   -0.83187  -0.82921  -0.82175  -0.81133  -0.80312
 Alpha  occ. eigenvalues --   -0.79762  -0.78343  -0.77732  -0.77323  -0.76043
 Alpha  occ. eigenvalues --   -0.75371  -0.75302  -0.75193  -0.73628  -0.73209
 Alpha  occ. eigenvalues --   -0.72874  -0.72850  -0.72290  -0.70912  -0.70749
 Alpha  occ. eigenvalues --   -0.69579  -0.69499  -0.69136  -0.68384  -0.67850
 Alpha  occ. eigenvalues --   -0.67447  -0.66229  -0.66112  -0.65011  -0.64852
 Alpha  occ. eigenvalues --   -0.64352  -0.63003  -0.62773  -0.62589  -0.62512
 Alpha  occ. eigenvalues --   -0.61317  -0.61226  -0.61042  -0.60409  -0.60129
 Alpha  occ. eigenvalues --   -0.59689  -0.59324  -0.59264  -0.58864  -0.58526
 Alpha  occ. eigenvalues --   -0.58145  -0.57206  -0.56425  -0.55999  -0.55955
 Alpha  occ. eigenvalues --   -0.55677  -0.55349  -0.55279  -0.54968  -0.54670
 Alpha  occ. eigenvalues --   -0.54402  -0.54087  -0.53851  -0.53176  -0.53028
 Alpha  occ. eigenvalues --   -0.52772  -0.52542  -0.52405  -0.52223  -0.51831
 Alpha  occ. eigenvalues --   -0.51470  -0.50962  -0.50813  -0.50624  -0.50534
 Alpha  occ. eigenvalues --   -0.49821  -0.49677  -0.49545  -0.49345  -0.49240
 Alpha  occ. eigenvalues --   -0.49186  -0.48582  -0.48541  -0.48359  -0.47841
 Alpha  occ. eigenvalues --   -0.47649  -0.47450  -0.47334  -0.47172  -0.47070
 Alpha  occ. eigenvalues --   -0.46444  -0.46315  -0.46064  -0.45765  -0.45633
 Alpha  occ. eigenvalues --   -0.45367  -0.45347  -0.45087  -0.44954  -0.44769
 Alpha  occ. eigenvalues --   -0.44753  -0.44641  -0.44517  -0.44378  -0.44275
 Alpha  occ. eigenvalues --   -0.44245  -0.43969  -0.43744  -0.43457  -0.43283
 Alpha  occ. eigenvalues --   -0.43213  -0.43069  -0.43048  -0.42646  -0.42436
 Alpha  occ. eigenvalues --   -0.42331  -0.42101  -0.42032  -0.41946  -0.41893
 Alpha  occ. eigenvalues --   -0.41713  -0.41645  -0.41458  -0.41346  -0.41093
 Alpha  occ. eigenvalues --   -0.40867  -0.40677  -0.40547  -0.40500  -0.40485
 Alpha  occ. eigenvalues --   -0.40330  -0.40098  -0.39989  -0.39846  -0.39638
 Alpha  occ. eigenvalues --   -0.39489  -0.39401  -0.39345  -0.39228  -0.38874
 Alpha  occ. eigenvalues --   -0.38789  -0.38709  -0.38653  -0.38450  -0.38287
 Alpha  occ. eigenvalues --   -0.38221  -0.38111  -0.37903  -0.37820  -0.37586
 Alpha  occ. eigenvalues --   -0.37344  -0.37299  -0.37167  -0.37076  -0.36832
 Alpha  occ. eigenvalues --   -0.36716  -0.36446  -0.36165  -0.35680  -0.35617
 Alpha  occ. eigenvalues --   -0.35526  -0.35481  -0.35085  -0.34981  -0.34935
 Alpha  occ. eigenvalues --   -0.34757  -0.34694  -0.34310  -0.34120  -0.33961
 Alpha  occ. eigenvalues --   -0.33914  -0.33785  -0.33600  -0.33224  -0.32597
 Alpha  occ. eigenvalues --   -0.32255  -0.32032  -0.31946  -0.31727  -0.31654
 Alpha  occ. eigenvalues --   -0.31496  -0.30812  -0.30663  -0.30497  -0.30360
 Alpha  occ. eigenvalues --   -0.29760  -0.29382  -0.29048  -0.28947  -0.28843
 Alpha  occ. eigenvalues --   -0.28626  -0.28566  -0.28427  -0.27366  -0.27021
 Alpha  occ. eigenvalues --   -0.26932  -0.26712  -0.26589  -0.26476  -0.25982
 Alpha  occ. eigenvalues --   -0.25062  -0.24726  -0.24416  -0.24024  -0.23822
 Alpha  occ. eigenvalues --   -0.23746  -0.23673  -0.23288  -0.23182  -0.22887
 Alpha  occ. eigenvalues --   -0.22610  -0.22531  -0.22035  -0.21731  -0.21539
 Alpha  occ. eigenvalues --   -0.20856  -0.20297  -0.19925  -0.19699  -0.19333
 Alpha  occ. eigenvalues --   -0.19073  -0.18715  -0.17716
 Alpha virt. eigenvalues --   -0.10258  -0.04680  -0.04029  -0.02725  -0.01987
 Alpha virt. eigenvalues --   -0.01915  -0.00914  -0.00605   0.00239   0.00304
 Alpha virt. eigenvalues --    0.00509   0.00606   0.01176   0.01500   0.01903

 Mulliken charges:
               1
     1  C    0.085402
     2  C    0.016695
     3  O   -0.311842
     4  H    0.067178
     5  H   -0.012707
     6  H    0.004283
     7  N   -0.097767
     8  C    0.099868
     9  C    0.069961
    10  O   -0.300673
    11  C    0.070584
    12  C    0.154087
    13  O   -0.386147
    14  O   -0.455334
    15  H    0.129471
    16  H    0.009311
    17  H    0.021978
    18  H    0.007244
    19  N   -0.098832
    20  C    0.135316
    21  C    0.047173
    22  O   -0.305270
    23  C    0.035334
    24  C   -0.011891
    25  C   -0.067912
    26  C    0.057833
    27  N    0.085611
    28  H    0.138107
    29  H   -0.011320
    30  H    0.013810
    31  H    0.030468
    32  H   -0.002039
    33  H    0.064301
    34  H    0.031459
    35  H    0.010967
    36  H    0.070623
    37  H    0.102998
    38  H    0.173291
    39  H    0.189203
    40  H    0.175789
    41  N   -0.170589
    42  C    0.147844
    43  C    0.025072
    44  O   -0.299553
    45  C    0.118550
    46  C    0.114822
    47  O   -0.417910
    48  O   -0.488447
    49  H    0.160886
    50  H    0.024653
    51  H    0.013063
    52  H    0.026990
    53  N   -0.138481
    54  C    0.245838
    55  C    0.030801
    56  O   -0.299358
    57  H    0.139123
    58  H    0.012967
    59  H    0.022731
    60  N   -0.165235
    61  C    0.172766
    62  C    0.034314
    63  O   -0.301387
    64  C    0.077155
    65  C    0.049957
    66  N   -0.015392
    67  O   -0.365134
    68  H    0.155197
    69  H    0.027703
    70  H    0.068042
    71  H    0.010754
    72  H    0.131072
    73  H    0.121892
    74  N   -0.168441
    75  C    0.237441
    76  C    0.038276
    77  O   -0.314929
    78  H    0.148389
    79  H    0.046694
    80  H    0.014824
    81  N   -0.148797
    82  C    0.096515
    83  C    0.161276
    84  O   -0.357336
    85  C    0.162430
    86  C   -0.000569
    87  C    0.008818
    88  C    0.008810
    89  C    0.011293
    90  C   -0.056029
    91  C    0.198597
    92  O   -0.211447
    93  H    0.166836
    94  H   -0.001095
    95  H   -0.016586
    96  H   -0.048759
    97  H   -0.043414
    98  H   -0.043114
    99  H   -0.021149
   100  H   -0.040838
   101  H    0.171779
   102  N   -0.124754
   103  C    0.125863
   104  C    0.076135
   105  O   -0.293434
   106  C   -0.059969
   107  C   -0.005817
   108  C    0.048029
   109  C    0.024277
   110  H    0.132301
   111  H    0.009505
   112  H   -0.026903
   113  H    0.011861
   114  H   -0.016127
   115  H   -0.001740
   116  H    0.026216
   117  H    0.015687
   118  H    0.009072
   119  H   -0.008983
   120  H    0.011117
   121  N   -0.127091
   122  C    0.058872
   123  C    0.117634
   124  O   -0.278670
   125  C    0.264029
   126  O   -0.357945
   127  H    0.147893
   128  H    0.026787
   129  H    0.008520
   130  H   -0.021922
   131  H    0.171660
   132  N   -0.148840
   133  C    0.098398
   134  C    0.063061
   135  O   -0.263125
   136  C    0.034526
   137  H    0.130554
   138  H    0.018567
   139  H    0.044622
   140  H    0.021572
   141  H    0.016772
   142  N   -0.139731
   143  C    0.086819
   144  C    0.081500
   145  O   -0.253393
   146  C    0.046190
   147  H    0.107833
   148  H    0.013883
   149  H    0.029900
   150  H    0.016259
   151  H    0.026172
   152  N   -0.179007
   153  C    0.149316
   154  C    0.049076
   155  O   -0.315214
   156  C   -0.044790
   157  C    0.107824
   158  C    0.159653
   159  O   -0.475863
   160  O   -0.390149
   161  H    0.138788
   162  H   -0.017044
   163  H    0.045886
   164  H   -0.030861
   165  H    0.021643
   166  H   -0.020231
   167  N   -0.148679
   168  C    0.141055
   169  H    0.027689
   170  H    0.030855
   171  H    0.007109
   172  H    0.133738
   173  Ca   1.297670
   174  O   -0.320495
   175  H    0.161931
   176  H    0.169669
 Sum of Mulliken charges =  -0.00000

 Dipole moment (field-independent basis, Debye):
    X=             28.6474    Y=              1.7531    Z=             10.1917  Tot=             30.4568
 Quadrupole moment (field-independent basis, Debye-Ang):
   XX=           -668.1690   YY=           -451.2897   ZZ=           -489.2144
   XY=            108.7850   XZ=             38.1473   YZ=            128.1765

 ESP charges:
               1
     1  C   -0.475995
     2  C    0.813982
     3  O   -0.588413
     4  H    0.143272
     5  H    0.134135
     6  H    0.098472
     7  N   -0.826259
     8  C    0.567160
     9  C    0.382241
    10  O   -0.511911
    11  C   -0.447034
    12  C    0.974656
    13  O   -0.739727
    14  O   -0.937541
    15  H    0.376174
    16  H   -0.080532
    17  H    0.112209
    18  H    0.068677
    19  N   -0.150086
    20  C   -0.106886
    21  C    0.600680
    22  O   -0.589055
    23  C   -0.137045
    24  C    0.097571
    25  C   -0.190853
    26  C    0.191244
    27  N   -0.382873
    28  H    0.173234
    29  H    0.067440
    30  H    0.087961
    31  H    0.062005
    32  H    0.009363
    33  H    0.017433
    34  H    0.045278
    35  H    0.063406
    36  H    0.059516
    37  H    0.039213
    38  H    0.309198
    39  H    0.326439
    40  H    0.325079
    41  N   -0.405511
    42  C    0.211084
    43  C    0.282635
    44  O   -0.510375
    45  C   -0.382747
    46  C    0.852089
    47  O   -0.747322
    48  O   -0.738755
    49  H    0.252797
    50  H    0.087524
    51  H    0.114350
    52  H    0.104650
    53  N   -0.014299
    54  C   -0.233837
    55  C    0.556599
    56  O   -0.588032
    57  H    0.048138
    58  H    0.111404
    59  H    0.117069
    60  N   -0.145440
    61  C   -0.287512
    62  C    0.514874
    63  O   -0.537364
    64  C   -0.057952
    65  C    0.683043
    66  N   -0.810829
    67  O   -0.681102
    68  H    0.220420
    69  H    0.184567
    70  H    0.089645
    71  H    0.036333
    72  H    0.387591
    73  H    0.377544
    74  N   -0.297809
    75  C   -0.216935
    76  C    0.784076
    77  O   -0.618014
    78  H    0.288621
    79  H    0.140076
    80  H    0.083939
    81  N   -0.643725
    82  C    0.148384
    83  C    0.604527
    84  O   -0.589403
    85  C    0.202645
    86  C   -0.144495
    87  C   -0.206363
    88  C    0.023187
    89  C   -0.178508
    90  C   -0.391863
    91  C    0.419372
    92  O   -0.587669
    93  H    0.422469
    94  H    0.023346
    95  H   -0.047327
    96  H   -0.040182
    97  H    0.164264
    98  H    0.092030
    99  H    0.144943
   100  H    0.165867
   101  H    0.424301
   102  N   -0.650911
   103  C   -0.191484
   104  C    0.744119
   105  O   -0.574507
   106  C    0.265673
   107  C    0.101514
   108  C   -0.492423
   109  C   -0.397260
   110  H    0.354582
   111  H    0.153020
   112  H    0.009665
   113  H    0.048091
   114  H    0.043352
   115  H    0.138628
   116  H    0.122713
   117  H    0.065161
   118  H    0.097739
   119  H    0.064153
   120  H    0.103647
   121  N   -0.356771
   122  C   -0.210821
   123  C    0.609812
   124  O   -0.478005
   125  C    0.113774
   126  O   -0.551910
   127  H    0.177222
   128  H    0.113966
   129  H    0.060303
   130  H    0.042085
   131  H    0.389046
   132  N   -0.476064
   133  C    0.214867
   134  C    0.432122
   135  O   -0.524472
   136  C   -0.363269
   137  H    0.303326
   138  H    0.058038
   139  H    0.132001
   140  H    0.096717
   141  H    0.089896
   142  N   -0.339847
   143  C    0.124101
   144  C    0.335621
   145  O   -0.487141
   146  C   -0.386498
   147  H    0.259944
   148  H    0.079213
   149  H    0.113467
   150  H    0.094766
   151  H    0.130056
   152  N    0.077006
   153  C   -0.411740
   154  C    0.577850
   155  O   -0.597424
   156  C    0.193534
   157  C   -0.200887
   158  C    0.731792
   159  O   -0.703812
   160  O   -0.663974
   161  H    0.051135
   162  H    0.132470
   163  H    0.040254
   164  H   -0.057170
   165  H    0.056457
   166  H    0.034483
   167  N   -0.132715
   168  C   -0.185918
   169  H    0.087260
   170  H    0.108458
   171  H    0.053471
   172  H    0.184436
   173  Ca   1.621288
   174  O   -0.902151
   175  H    0.421593
   176  H    0.440427
 Sum of ESP charges =   0.00000

 Normal termination of Gaussian 16 at Wed Sep 18 20:06:41 2019.
