 Gaussian 16, Revision A.03,
 Gaussian 16:  ES64L-G16RevA.03 25-Dec-2016

 ----------------------------------------------------------------------
 #b3lyp/svp scf=(tight,noincore) Test #IOP(5/87=12) Density=Current Pop
 =(MK,readradii) iop(6/33=2) iop(6/42=6)
 ----------------------------------------------------------------------

 ------------------
 holoCaM_loop3_50.0
 ------------------
 Symbolic Z-matrix:
 Charge =  0 Multiplicity = 1

                         Standard orientation:
 ---------------------------------------------------------------------
 Center     Atomic      Atomic             Coordinates (Angstroms)
 Number     Number       Type             X           Y           Z
 ---------------------------------------------------------------------
      1          6           0        2.400643    1.852784    5.618510
      2          6           0        1.823829    1.736551    4.215273
      3          8           0        2.631058    1.524382    3.309753
      4          1           0        3.105087    2.684461    5.653906
      5          1           0        1.594097    2.029474    6.330129
      6          1           0        2.917060    0.928685    5.877115
      7          7           0        0.517449    1.970737    4.039977
      8          6           0       -0.202797    2.020200    2.779819
      9          6           0       -0.025085    3.351692    2.062499
     10          8           0       -0.833499    4.272217    2.119944
     11          6           0       -1.680506    1.702244    3.026762
     12          6           0       -2.565682    1.670403    1.794670
     13          8           0       -2.086697    1.710861    0.650539
     14          8           0       -3.781284    1.563558    2.094830
     15          1           0        0.081217    2.172813    4.926524
     16          1           0        0.196987    1.292549    2.066309
     17          1           0       -1.949031    2.475971    3.747207
     18          1           0       -1.563632    0.740755    3.525638
     19          7           0        1.048239    3.445388    1.269405
     20          6           0        1.635128    4.675059    0.780355
     21          6           0        0.838222    5.415614   -0.275070
     22          8           0        1.100538    6.588493   -0.544970
     23          6           0        3.089541    4.410672    0.387695
     24          6           0        3.958344    5.660365    0.298548
     25          6           0        5.338035    5.211208   -0.191973
     26          6           0        6.283110    6.382322   -0.423975
     27          7           0        7.386511    5.877147   -1.253798
     28          1           0        1.621182    2.620866    1.310635
     29          1           0        1.851986    5.318697    1.642505
     30          1           0        3.076763    3.838451   -0.543380
     31          1           0        3.571326    3.790687    1.141353
     32          1           0        3.998951    5.997780    1.340039
     33          1           0        3.515510    6.384816   -0.386776
     34          1           0        5.159774    4.667521   -1.122095
     35          1           0        5.730017    4.502561    0.528908
     36          1           0        6.653850    6.790846    0.515259
     37          1           0        5.769351    7.204276   -0.919398
     38          1           0        7.733546    4.949185   -1.036882
     39          1           0        7.127451    5.847510   -2.224216
     40          1           0        8.211317    6.439126   -1.088951
     41          7           0       -0.200252    4.762168   -0.806085
     42          6           0       -1.152801    5.276893   -1.769988
     43          6           0       -2.564825    5.158022   -1.219482
     44          8           0       -3.542206    5.463500   -1.909343
     45          6           0       -1.073222    4.449640   -3.057474
     46          6           0       -1.303454    2.972043   -2.783431
     47          8           0       -2.430567    2.522410   -2.457474
     48          8           0       -0.289573    2.303181   -2.504204
     49          1           0       -0.192154    3.774930   -0.586323
     50          1           0       -0.974665    6.325114   -2.012064
     51          1           0       -0.082765    4.576072   -3.480214
     52          1           0       -1.884308    4.833758   -3.668206
     53          7           0       -2.773319    4.633739   -0.005003
     54          6           0       -4.056172    4.625616    0.666951
     55          6           0       -5.121487    3.742827    0.033557
     56          8           0       -6.235642    3.842206    0.547446
     57          1           0       -1.996067    4.477200    0.613684
     58          1           0       -4.417510    5.644987    0.791121
     59          1           0       -3.832647    4.334994    1.697958
     60          7           0       -4.824055    2.950858   -0.997423
     61          6           0       -5.884438    2.169371   -1.604107
     62          6           0       -6.410353    1.106040   -0.648995
     63          8           0       -7.366639    0.429428   -1.009986
     64          6           0       -5.520579    1.516604   -2.928192
     65          6           0       -4.756390    0.221485   -2.702400
     66          7           0       -4.770828   -0.713537   -3.657399
     67          8           0       -4.048464   -0.116755   -1.756178
     68          1           0       -3.893018    2.864971   -1.393901
     69          1           0       -6.696927    2.862543   -1.847982
     70          1           0       -4.866701    2.119902   -3.566138
     71          1           0       -6.442028    1.260968   -3.443345
     72          1           0       -5.298637   -0.529431   -4.494073
     73          1           0       -4.305388   -1.591450   -3.476197
     74          7           0       -5.864163    0.820404    0.543141
     75          6           0       -6.379062   -0.038380    1.589023
     76          6           0       -5.801397   -1.449310    1.644531
     77          8           0       -6.413869   -2.353397    2.213834
     78          1           0       -4.988681    1.245584    0.801892
     79          1           0       -7.452704   -0.168924    1.436208
     80          1           0       -6.115443    0.396558    2.548936
     81          7           0       -4.585396   -1.571174    1.125986
     82          6           0       -3.780587   -2.780704    1.225586
     83          6           0       -2.288445   -2.473994    1.198336
     84          8           0       -1.954271   -1.465235    0.586674
     85          6           0       -4.083672   -3.754132    0.091400
     86          6           0       -5.525986   -4.179212   -0.066837
     87          6           0       -6.124528   -3.811065   -1.277711
     88          6           0       -6.230194   -4.988417    0.829699
     89          6           0       -7.311159   -4.441307   -1.682190
     90          6           0       -7.412493   -5.629137    0.441696
     91          6           0       -7.944018   -5.357230   -0.835860
     92          8           0       -9.040575   -6.026894   -1.313365
     93          1           0       -4.097992   -0.749250    0.816505
     94          1           0       -4.007176   -3.185212    2.217519
     95          1           0       -3.485611   -4.625218    0.327055
     96          1           0       -3.642696   -3.356747   -0.815752
     97          1           0       -5.601314   -3.178644   -1.972038
     98          1           0       -5.773914   -5.223383    1.786359
     99          1           0       -7.847496   -4.300287   -2.604717
    100          1           0       -7.898375   -6.334857    1.103873
    101          1           0       -9.568614   -6.625893   -0.778599
    102          7           0       -1.350864   -3.139566    1.876020
    103          6           0        0.084479   -2.947757    1.827047
    104          6           0        0.800370   -4.022653    1.028111
    105          8           0        0.466550   -5.207684    1.102718
    106          6           0        0.826565   -2.855450    3.159484
    107          6           0        0.086050   -1.756934    3.907081
    108          6           0        2.317483   -2.536952    3.091497
    109          6           0        0.085853   -1.973324    5.420413
    110          1           0       -1.640565   -3.903941    2.473602
    111          1           0        0.183803   -2.003145    1.284882
    112          1           0        0.751581   -3.841927    3.620071
    113          1           0       -0.966527   -1.704427    3.610223
    114          1           0        0.602796   -0.852720    3.605802
    115          1           0        2.449735   -1.678013    2.437637
    116          1           0        2.708956   -2.459298    4.106198
    117          1           0        2.829563   -3.356506    2.593495
    118          1           0        1.090209   -1.839445    5.824203
    119          1           0       -0.545124   -1.180875    5.811044
    120          1           0       -0.274810   -2.969438    5.670775
    121          7           0        1.841753   -3.615116    0.297334
    122          6           0        2.601416   -4.381493   -0.668935
    123          6           0        4.091253   -4.316142   -0.375653
    124          8           0        4.530394   -3.586137    0.507268
    125          6           0        2.256028   -3.836107   -2.052142
    126          8           0        2.859593   -2.563486   -2.190511
    127          1           0        2.115565   -2.644437    0.417796
    128          1           0        2.316744   -5.437849   -0.634667
    129          1           0        1.168921   -3.729361   -2.099068
    130          1           0        2.576282   -4.568776   -2.784353
    131          1           0        2.157968   -1.909240   -2.269784
    132          7           0        4.907682   -5.079492   -1.124279
    133          6           0        6.335582   -5.189153   -0.889598
    134          6           0        7.061528   -3.881477   -1.183512
    135          8           0        7.967695   -3.415380   -0.494082
    136          6           0        6.929887   -6.338261   -1.691628
    137          1           0        4.523251   -5.629922   -1.870965
    138          1           0        6.483427   -5.362580    0.175139
    139          1           0        6.726790   -6.124822   -2.740673
    140          1           0        7.986652   -6.410370   -1.444753
    141          1           0        6.458931   -7.258958   -1.340035
    142          7           0        6.626495   -3.269300   -2.294316
    143          6           0        7.058308   -1.991494   -2.821240
    144          6           0        6.724845   -0.804523   -1.930171
    145          8           0        7.450999    0.187907   -1.878368
    146          6           0        6.322626   -1.850439   -4.152620
    147          1           0        5.921795   -3.688235   -2.885324
    148          1           0        8.133361   -2.096839   -2.915921
    149          1           0        5.239747   -1.852313   -3.990540
    150          1           0        6.552474   -0.907490   -4.645182
    151          1           0        6.538480   -2.671771   -4.828801
    152          7           0        5.639613   -0.851114   -1.152546
    153          6           0        5.226510    0.159532   -0.207009
    154          6           0        5.858873   -0.091098    1.154682
    155          8           0        6.275906    0.899278    1.735578
    156          6           0        3.734592   -0.042038    0.069129
    157          6           0        2.884943    0.628058   -1.005099
    158          6           0        1.453074    0.096978   -1.002853
    159          8           0        1.028880   -0.665092   -1.897956
    160          8           0        0.723075    0.383447   -0.033968
    161          1           0        5.084258   -1.690969   -1.297885
    162          1           0        5.435343    1.177631   -0.512727
    163          1           0        3.488905    0.482474    0.989252
    164          1           0        3.545482   -1.109769    0.143876
    165          1           0        3.312647    0.382896   -1.977500
    166          1           0        2.946403    1.701245   -0.848597
    167          7           0        5.970563   -1.334320    1.633559
    168          6           0        6.557617   -1.701158    2.908980
    169          1           0        7.422483   -1.068433    3.105860
    170          1           0        5.821220   -1.565410    3.701152
    171          1           0        6.870772   -2.744831    2.879133
    172          1           0        5.529375   -2.088671    1.124140
    173         20           0       -1.529304    0.227682   -1.386050
    174          8           0       -1.341377   -0.233865   -3.938256
    175          1           0       -1.864590    0.229940   -4.586124
    176          1           0       -1.274792   -1.122954   -4.266259
 ---------------------------------------------------------------------

 SCF Done:  E(RB3LYP) =  -5333.61213082     A.U. after   20 cycles

 The electronic state is 1-A.
 Alpha  occ. eigenvalues -- -145.34802 -19.17462 -19.13809 -19.13413 -19.13333
 Alpha  occ. eigenvalues --  -19.11493 -19.10985 -19.10641 -19.09619 -19.08580
 Alpha  occ. eigenvalues --  -19.08471 -19.08178 -19.07591 -19.07543 -19.06491
 Alpha  occ. eigenvalues --  -19.06214 -19.05020 -19.04601 -19.04438 -19.03842
 Alpha  occ. eigenvalues --  -19.03446 -19.02591 -19.02026 -19.01922 -15.40531
 Alpha  occ. eigenvalues --  -14.58237 -14.39309 -14.37043 -14.36855 -14.35923
 Alpha  occ. eigenvalues --  -14.35854 -14.35198 -14.34478 -14.33644 -14.32484
 Alpha  occ. eigenvalues --  -14.32206 -14.30987 -14.28509 -14.27876 -14.26723
 Alpha  occ. eigenvalues --  -12.54146 -12.54106 -12.54099 -10.34629 -10.32055
 Alpha  occ. eigenvalues --  -10.30047 -10.29617 -10.29510 -10.28259 -10.27568
 Alpha  occ. eigenvalues --  -10.27563 -10.26412 -10.26322 -10.26273 -10.25828
 Alpha  occ. eigenvalues --  -10.25747 -10.25591 -10.25271 -10.25154 -10.24435
 Alpha  occ. eigenvalues --  -10.23823 -10.23092 -10.22976 -10.22865 -10.22619
 Alpha  occ. eigenvalues --  -10.22583 -10.22489 -10.22465 -10.22352 -10.22332
 Alpha  occ. eigenvalues --  -10.21794 -10.21653 -10.21099 -10.20793 -10.20756
 Alpha  occ. eigenvalues --  -10.20438 -10.20287 -10.20079 -10.19027 -10.18942
 Alpha  occ. eigenvalues --  -10.18925 -10.18761 -10.18178 -10.17812 -10.17253
 Alpha  occ. eigenvalues --  -10.17087 -10.16895 -10.16822 -10.16742 -10.16700
 Alpha  occ. eigenvalues --  -10.16623 -10.16462 -10.16248 -10.15985 -10.15896
 Alpha  occ. eigenvalues --  -10.15241 -10.14944  -1.77491  -1.13603  -1.06883
 Alpha  occ. eigenvalues --   -1.05507  -1.05487  -1.05207  -1.04699  -1.03974
 Alpha  occ. eigenvalues --   -1.03696  -1.03461  -1.02648  -1.02122  -1.01866
 Alpha  occ. eigenvalues --   -1.01789  -1.01472  -1.01277  -1.01048  -1.00257
 Alpha  occ. eigenvalues --   -0.99863  -0.99726  -0.97594  -0.97363  -0.96768
 Alpha  occ. eigenvalues --   -0.96235  -0.96233  -0.94781  -0.93846  -0.93190
 Alpha  occ. eigenvalues --   -0.92655  -0.91657  -0.91448  -0.91304  -0.91165
 Alpha  occ. eigenvalues --   -0.90087  -0.89594  -0.89045  -0.88568  -0.88517
 Alpha  occ. eigenvalues --   -0.88252  -0.88089  -0.85765  -0.84873  -0.83707
 Alpha  occ. eigenvalues --   -0.82433  -0.82322  -0.81732  -0.81583  -0.79199
 Alpha  occ. eigenvalues --   -0.77978  -0.77294  -0.77261  -0.77041  -0.75730
 Alpha  occ. eigenvalues --   -0.75549  -0.74699  -0.73690  -0.73448  -0.71768
 Alpha  occ. eigenvalues --   -0.71639  -0.71620  -0.71560  -0.71064  -0.70006
 Alpha  occ. eigenvalues --   -0.69057  -0.67912  -0.67882  -0.66981  -0.66890
 Alpha  occ. eigenvalues --   -0.66569  -0.65695  -0.64511  -0.64187  -0.63609
 Alpha  occ. eigenvalues --   -0.63419  -0.63119  -0.62193  -0.62027  -0.61671
 Alpha  occ. eigenvalues --   -0.60761  -0.60413  -0.60248  -0.59799  -0.59120
 Alpha  occ. eigenvalues --   -0.58313  -0.58227  -0.58037  -0.57635  -0.57114
 Alpha  occ. eigenvalues --   -0.57087  -0.56935  -0.56376  -0.56096  -0.55946
 Alpha  occ. eigenvalues --   -0.55719  -0.55317  -0.54890  -0.54660  -0.54334
 Alpha  occ. eigenvalues --   -0.53692  -0.53379  -0.52986  -0.52759  -0.52690
 Alpha  occ. eigenvalues --   -0.52535  -0.52360  -0.51889  -0.51399  -0.50902
 Alpha  occ. eigenvalues --   -0.50232  -0.50157  -0.49685  -0.49507  -0.49364
 Alpha  occ. eigenvalues --   -0.49305  -0.48915  -0.48674  -0.48538  -0.48061
 Alpha  occ. eigenvalues --   -0.47941  -0.47835  -0.47478  -0.47279  -0.47152
 Alpha  occ. eigenvalues --   -0.46946  -0.46820  -0.46539  -0.46220  -0.45974
 Alpha  occ. eigenvalues --   -0.45789  -0.45154  -0.44947  -0.44899  -0.44832
 Alpha  occ. eigenvalues --   -0.44548  -0.44392  -0.44228  -0.44183  -0.43883
 Alpha  occ. eigenvalues --   -0.43849  -0.43761  -0.43664  -0.43358  -0.43308
 Alpha  occ. eigenvalues --   -0.43112  -0.42868  -0.42532  -0.42471  -0.42283
 Alpha  occ. eigenvalues --   -0.42157  -0.42094  -0.42039  -0.41887  -0.41581
 Alpha  occ. eigenvalues --   -0.41467  -0.41277  -0.41124  -0.41078  -0.40930
 Alpha  occ. eigenvalues --   -0.40744  -0.40681  -0.40527  -0.40229  -0.40045
 Alpha  occ. eigenvalues --   -0.40019  -0.39920  -0.39842  -0.39667  -0.39489
 Alpha  occ. eigenvalues --   -0.39319  -0.39204  -0.39040  -0.38892  -0.38866
 Alpha  occ. eigenvalues --   -0.38821  -0.38597  -0.38565  -0.38495  -0.38227
 Alpha  occ. eigenvalues --   -0.38155  -0.38121  -0.38019  -0.37802  -0.37767
 Alpha  occ. eigenvalues --   -0.37524  -0.37403  -0.37229  -0.37150  -0.36820
 Alpha  occ. eigenvalues --   -0.36738  -0.36624  -0.36606  -0.36407  -0.36204
 Alpha  occ. eigenvalues --   -0.35988  -0.35935  -0.35351  -0.35114  -0.35058
 Alpha  occ. eigenvalues --   -0.34937  -0.34872  -0.34710  -0.34321  -0.34210
 Alpha  occ. eigenvalues --   -0.34079  -0.33848  -0.33572  -0.33227  -0.33025
 Alpha  occ. eigenvalues --   -0.32684  -0.32587  -0.32535  -0.32378  -0.32195
 Alpha  occ. eigenvalues --   -0.31642  -0.31484  -0.31440  -0.31109  -0.31017
 Alpha  occ. eigenvalues --   -0.30786  -0.30692  -0.30353  -0.29785  -0.29322
 Alpha  occ. eigenvalues --   -0.28587  -0.28336  -0.28176  -0.28132  -0.27384
 Alpha  occ. eigenvalues --   -0.27132  -0.26551  -0.26462  -0.26320  -0.26272
 Alpha  occ. eigenvalues --   -0.25925  -0.25291  -0.24914  -0.24738  -0.24569
 Alpha  occ. eigenvalues --   -0.24310  -0.24243  -0.23388  -0.23251  -0.23156
 Alpha  occ. eigenvalues --   -0.23058  -0.22688  -0.22537  -0.22290  -0.22201
 Alpha  occ. eigenvalues --   -0.22117  -0.21382  -0.21336  -0.21008  -0.20332
 Alpha  occ. eigenvalues --   -0.20072  -0.20046  -0.19366  -0.19205  -0.18457
 Alpha  occ. eigenvalues --   -0.17767  -0.17363  -0.16955
 Alpha virt. eigenvalues --   -0.10036  -0.04522  -0.03786  -0.01998  -0.01530
 Alpha virt. eigenvalues --   -0.00403   0.00101   0.00190   0.00420   0.01235
 Alpha virt. eigenvalues --    0.01376   0.01475   0.01963   0.02195   0.02261

 Mulliken charges:
               1
     1  C    0.067308
     2  C    0.010777
     3  O   -0.302156
     4  H    0.040637
     5  H   -0.012847
     6  H    0.041442
     7  N   -0.118042
     8  C    0.047765
     9  C    0.085009
    10  O   -0.292484
    11  C    0.082363
    12  C    0.197362
    13  O   -0.439164
    14  O   -0.402300
    15  H    0.119022
    16  H    0.048244
    17  H    0.002793
    18  H   -0.005479
    19  N   -0.129530
    20  C    0.160866
    21  C    0.072835
    22  O   -0.302384
    23  C   -0.096364
    24  C    0.033397
    25  C   -0.095711
    26  C    0.082925
    27  N    0.079393
    28  H    0.146600
    29  H    0.000699
    30  H    0.039248
    31  H    0.032254
    32  H    0.014786
    33  H    0.035660
    34  H    0.020207
    35  H    0.056409
    36  H    0.073321
    37  H    0.073827
    38  H    0.199935
    39  H    0.195704
    40  H    0.183605
    41  N   -0.133770
    42  C    0.098969
    43  C    0.038587
    44  O   -0.301792
    45  C    0.172631
    46  C    0.076173
    47  O   -0.427961
    48  O   -0.411144
    49  H    0.160485
    50  H    0.026163
    51  H   -0.019680
    52  H    0.007326
    53  N   -0.154140
    54  C    0.228119
    55  C    0.067426
    56  O   -0.313586
    57  H    0.138037
    58  H    0.003880
    59  H    0.020577
    60  N   -0.144495
    61  C    0.144330
    62  C    0.032914
    63  O   -0.312644
    64  C    0.117416
    65  C    0.044577
    66  N   -0.041345
    67  O   -0.375117
    68  H    0.168603
    69  H    0.021129
    70  H    0.052213
    71  H    0.021867
    72  H    0.112944
    73  H    0.119701
    74  N   -0.155481
    75  C    0.254090
    76  C    0.018468
    77  O   -0.300573
    78  H    0.151166
    79  H    0.023083
    80  H    0.035230
    81  N   -0.133149
    82  C    0.106745
    83  C    0.105613
    84  O   -0.359095
    85  C    0.180017
    86  C    0.005689
    87  C    0.038387
    88  C    0.070740
    89  C   -0.013629
    90  C   -0.059182
    91  C    0.179156
    92  O   -0.233897
    93  H    0.143363
    94  H   -0.001858
    95  H   -0.013969
    96  H   -0.046499
    97  H   -0.073924
    98  H   -0.040727
    99  H   -0.037069
   100  H   -0.048859
   101  H    0.177178
   102  N   -0.106069
   103  C    0.095019
   104  C    0.067105
   105  O   -0.289209
   106  C   -0.115998
   107  C   -0.007714
   108  C    0.058482
   109  C    0.051290
   110  H    0.125673
   111  H    0.032018
   112  H   -0.022280
   113  H    0.017893
   114  H    0.025800
   115  H    0.029334
   116  H    0.012280
   117  H    0.015533
   118  H   -0.003167
   119  H    0.004050
   120  H    0.006607
   121  N   -0.149458
   122  C    0.086621
   123  C    0.126133
   124  O   -0.279379
   125  C    0.257265
   126  O   -0.350015
   127  H    0.157665
   128  H    0.026234
   129  H    0.011960
   130  H   -0.026884
   131  H    0.180324
   132  N   -0.135739
   133  C    0.060727
   134  C    0.068486
   135  O   -0.247195
   136  C    0.062666
   137  H    0.112695
   138  H    0.019224
   139  H    0.006834
   140  H    0.044675
   141  H    0.033231
   142  N   -0.153537
   143  C    0.099005
   144  C    0.065944
   145  O   -0.302545
   146  C    0.018838
   147  H    0.101901
   148  H    0.015941
   149  H    0.026306
   150  H    0.027497
   151  H    0.014266
   152  N   -0.135654
   153  C    0.160020
   154  C    0.063468
   155  O   -0.294396
   156  C   -0.076388
   157  C    0.129586
   158  C    0.150156
   159  O   -0.445137
   160  O   -0.391743
   161  H    0.137307
   162  H   -0.041682
   163  H    0.063427
   164  H   -0.019994
   165  H   -0.023544
   166  H   -0.017479
   167  N   -0.165183
   168  C    0.146848
   169  H    0.022544
   170  H    0.015014
   171  H    0.017072
   172  H    0.130295
   173  Ca   1.254854
   174  O   -0.258734
   175  H    0.179356
   176  H    0.166313
 Sum of Mulliken charges =  -0.00000

 Dipole moment (field-independent basis, Debye):
    X=             35.2209    Y=              0.6115    Z=            -11.3775  Tot=             37.0180
 Quadrupole moment (field-independent basis, Debye-Ang):
   XX=           -542.0845   YY=           -454.0602   ZZ=           -490.7423
   XY=            185.4649   XZ=            -22.6339   YZ=              7.0649

 ESP charges:
               1
     1  C   -0.423110
     2  C    0.711873
     3  O   -0.586702
     4  H    0.133612
     5  H    0.072681
     6  H    0.131902
     7  N   -0.722435
     8  C    0.507357
     9  C    0.397220
    10  O   -0.513836
    11  C   -0.521641
    12  C    1.025347
    13  O   -0.891375
    14  O   -0.699106
    15  H    0.357036
    16  H   -0.012757
    17  H    0.104389
    18  H    0.094110
    19  N   -0.158003
    20  C   -0.197070
    21  C    0.593531
    22  O   -0.588548
    23  C    0.262914
    24  C   -0.435645
    25  C    0.176357
    26  C    0.120696
    27  N   -0.487811
    28  H    0.071712
    29  H    0.104304
    30  H    0.004156
    31  H    0.060661
    32  H    0.103601
    33  H    0.123217
    34  H   -0.001445
    35  H   -0.007748
    36  H    0.065097
    37  H    0.066428
    38  H    0.352527
    39  H    0.361765
    40  H    0.350061
    41  N   -0.458811
    42  C    0.328315
    43  C    0.262326
    44  O   -0.534487
    45  C   -0.487140
    46  C    0.869475
    47  O   -0.765694
    48  O   -0.748319
    49  H    0.286320
    50  H    0.069433
    51  H    0.107611
    52  H    0.114514
    53  N   -0.088471
    54  C   -0.111419
    55  C    0.556401
    56  O   -0.593773
    57  H    0.131660
    58  H    0.080448
    59  H    0.091847
    60  N   -0.429275
    61  C    0.177983
    62  C    0.206013
    63  O   -0.537616
    64  C   -0.310178
    65  C    0.734793
    66  N   -0.771861
    67  O   -0.618719
    68  H    0.382302
    69  H    0.087763
    70  H    0.109716
    71  H    0.103420
    72  H    0.343920
    73  H    0.343636
    74  N    0.346629
    75  C   -0.660078
    76  C    0.780634
    77  O   -0.572386
    78  H    0.049662
    79  H    0.195248
    80  H    0.201508
    81  N   -0.487181
    82  C    0.246152
    83  C    0.701961
    84  O   -0.584602
    85  C   -0.070640
    86  C   -0.312777
    87  C    0.175597
    88  C    0.223900
    89  C   -0.503072
    90  C   -0.536328
    91  C    0.620332
    92  O   -0.651207
    93  H    0.178179
    94  H   -0.004810
    95  H    0.026907
    96  H    0.027343
    97  H    0.062373
    98  H    0.062523
    99  H    0.195520
   100  H    0.172733
   101  H    0.440402
   102  N   -0.733458
   103  C    0.077714
   104  C    0.660517
   105  O   -0.575408
   106  C    0.142306
   107  C    0.260676
   108  C   -0.222025
   109  C   -0.397831
   110  H    0.337780
   111  H    0.005455
   112  H   -0.016562
   113  H    0.002685
   114  H   -0.010896
   115  H    0.005213
   116  H    0.080480
   117  H    0.035893
   118  H    0.077842
   119  H    0.077633
   120  H    0.086168
   121  N   -0.497767
   122  C    0.051905
   123  C    0.550809
   124  O   -0.422179
   125  C    0.119429
   126  O   -0.546168
   127  H    0.304546
   128  H    0.058476
   129  H    0.059071
   130  H   -0.000851
   131  H    0.362656
   132  N   -0.574658
   133  C    0.272520
   134  C    0.366524
   135  O   -0.498576
   136  C   -0.370110
   137  H    0.323212
   138  H    0.049091
   139  H    0.076294
   140  H    0.134240
   141  H    0.110817
   142  N   -0.244031
   143  C   -0.077834
   144  C    0.455087
   145  O   -0.560953
   146  C   -0.244756
   147  H    0.256419
   148  H    0.128151
   149  H    0.070093
   150  H    0.103661
   151  H    0.069062
   152  N   -0.052481
   153  C   -0.002434
   154  C    0.471852
   155  O   -0.553886
   156  C   -0.148564
   157  C    0.197137
   158  C    0.449127
   159  O   -0.632417
   160  O   -0.546105
   161  H    0.040921
   162  H    0.007559
   163  H    0.102564
   164  H    0.031982
   165  H   -0.051040
   166  H   -0.050992
   167  N   -0.183000
   168  C   -0.171259
   169  H    0.094826
   170  H    0.071864
   171  H    0.079592
   172  H    0.168467
   173  Ca   1.511499
   174  O   -0.760440
   175  H    0.386450
   176  H    0.398443
 Sum of ESP charges =  -0.00000

 Normal termination of Gaussian 16 at Wed Sep 18 20:06:48 2019.
