 Gaussian 16, Revision A.03,
 Gaussian 16:  ES64L-G16RevA.03 25-Dec-2016

 ----------------------------------------------------------------------
 #b3lyp/svp scf=(tight,noincore) Test #IOP(5/87=12) Density=Current Pop
 =(MK,readradii) iop(6/33=2) iop(6/42=6)
 ----------------------------------------------------------------------

 ------------------
 holoCaM_loop3_55.0
 ------------------
 Symbolic Z-matrix:
 Charge =  0 Multiplicity = 1

                         Standard orientation:
 ---------------------------------------------------------------------
 Center     Atomic      Atomic             Coordinates (Angstroms)
 Number     Number       Type             X           Y           Z
 ---------------------------------------------------------------------
      1          6           0       -1.800957   -3.513106    5.401575
      2          6           0       -1.541670   -2.792261    4.083450
      3          8           0       -2.458096   -2.461417    3.334180
      4          1           0       -0.878925   -3.983268    5.745569
      5          1           0       -2.142432   -2.795678    6.147425
      6          1           0       -2.564309   -4.276782    5.254829
      7          7           0       -0.268080   -2.720327    3.684458
      8          6           0        0.333570   -2.590050    2.377230
      9          6           0        0.295590   -3.894594    1.604753
     10          8           0        0.914926   -4.878733    2.014254
     11          6           0        1.774510   -2.186643    2.681459
     12          6           0        2.673433   -1.883521    1.493623
     13          8           0        3.828369   -1.473067    1.713279
     14          8           0        2.199195   -1.720266    0.344124
     15          1           0        0.366244   -3.003330    4.418586
     16          1           0       -0.248799   -1.891026    1.771662
     17          1           0        2.355398   -2.858949    3.313181
     18          1           0        1.787032   -1.306561    3.320207
     19          7           0       -0.279103   -3.891268    0.394994
     20          6           0       -0.581082   -5.153508   -0.252122
     21          6           0        0.492517   -5.736680   -1.147944
     22          8           0        0.657933   -6.942527   -1.310022
     23          6           0       -2.015974   -4.980617   -0.769996
     24          6           0       -3.111195   -4.681225    0.246250
     25          6           0       -3.165739   -5.661907    1.413163
     26          6           0       -4.348244   -5.264214    2.285816
     27          7           0       -4.544339   -6.282316    3.329998
     28          1           0       -0.505828   -3.022206   -0.058247
     29          1           0       -0.620778   -5.919435    0.524203
     30          1           0       -2.256510   -5.951283   -1.191479
     31          1           0       -2.044081   -4.213549   -1.547502
     32          1           0       -4.015886   -4.655240   -0.370645
     33          1           0       -2.985068   -3.684116    0.657185
     34          1           0       -2.254371   -5.657549    2.014736
     35          1           0       -3.454493   -6.663687    1.104848
     36          1           0       -5.306260   -5.125157    1.791278
     37          1           0       -4.090643   -4.303653    2.733884
     38          1           0       -4.648392   -7.189491    2.924034
     39          1           0       -3.716859   -6.290599    3.909143
     40          1           0       -5.332686   -6.126306    3.948035
     41          7           0        1.323696   -4.838150   -1.682252
     42          6           0        2.424568   -5.119765   -2.582515
     43          6           0        3.750482   -4.778214   -1.915735
     44          8           0        4.806598   -5.018863   -2.493323
     45          6           0        2.418298   -4.222014   -3.809627
     46          6           0        2.426210   -2.728886   -3.499136
     47          8           0        1.521935   -2.247039   -2.769335
     48          8           0        3.417436   -2.020773   -3.753398
     49          1           0        1.041609   -3.889142   -1.505300
     50          1           0        2.545366   -6.175294   -2.831847
     51          1           0        1.491984   -4.479809   -4.306099
     52          1           0        3.226695   -4.423337   -4.521711
     53          7           0        3.746151   -4.101565   -0.760431
     54          6           0        4.940540   -3.914483    0.026102
     55          6           0        5.893228   -2.906997   -0.604976
     56          8           0        7.079783   -3.222981   -0.700578
     57          1           0        2.894020   -3.657928   -0.435995
     58          1           0        5.450504   -4.882259    0.041814
     59          1           0        4.722152   -3.643132    1.055653
     60          7           0        5.409586   -1.723895   -0.992093
     61          6           0        6.179847   -0.535730   -1.305719
     62          6           0        6.421514    0.451964   -0.171278
     63          8           0        7.028165    1.504779   -0.367380
     64          6           0        5.698197    0.078234   -2.610158
     65          6           0        4.495587    0.990699   -2.371543
     66          7           0        4.485844    2.201397   -2.928244
     67          8           0        3.597281    0.775875   -1.556806
     68          1           0        4.416922   -1.614242   -0.881211
     69          1           0        7.139316   -0.968416   -1.600852
     70          1           0        5.495934   -0.697591   -3.347034
     71          1           0        6.463984    0.736287   -3.009580
     72          1           0        5.216411    2.401171   -3.610932
     73          1           0        3.647638    2.757565   -2.870909
     74          7           0        5.979441    0.178547    1.065619
     75          6           0        6.050365    1.039829    2.227756
     76          6           0        4.900875    2.018542    2.359649
     77          8           0        4.837609    2.672372    3.404926
     78          1           0        5.338585   -0.591607    1.127808
     79          1           0        6.994702    1.588756    2.225211
     80          1           0        6.095392    0.470429    3.156064
     81          7           0        3.927200    2.120531    1.458563
     82          6           0        2.859765    3.088222    1.526069
     83          6           0        1.494175    2.470660    1.261340
     84          8           0        1.187295    1.799542    0.281582
     85          6           0        3.071884    4.091650    0.394550
     86          6           0        4.273253    4.983478    0.530402
     87          6           0        5.468440    4.684284   -0.128622
     88          6           0        4.167488    6.150339    1.293912
     89          6           0        6.594766    5.521286   -0.055722
     90          6           0        5.335016    6.929738    1.401225
     91          6           0        6.576892    6.651922    0.791829
     92          8           0        7.661140    7.480756    0.817163
     93          1           0        4.110801    1.616301    0.592282
     94          1           0        2.813605    3.613832    2.481529
     95          1           0        2.209550    4.721540    0.130508
     96          1           0        3.193690    3.528375   -0.537268
     97          1           0        5.479052    3.762363   -0.696558
     98          1           0        3.176245    6.487729    1.543121
     99          1           0        7.418454    5.314650   -0.719453
    100          1           0        5.296822    7.819081    1.997052
    101          1           0        7.520694    8.196736    1.442820
    102          7           0        0.437702    2.789274    2.019265
    103          6           0       -0.959696    2.503659    1.784529
    104          6           0       -1.572092    3.556059    0.873637
    105          8           0       -1.715902    4.710334    1.269324
    106          6           0       -1.766511    2.245256    3.061900
    107          6           0       -1.005113    1.416051    4.101174
    108          6           0       -3.024327    1.452798    2.706641
    109          6           0       -1.696075    1.377169    5.459099
    110          1           0        0.644572    3.423743    2.778445
    111          1           0       -1.097623    1.628392    1.152878
    112          1           0       -2.013368    3.207074    3.514524
    113          1           0       -0.050620    1.931060    4.244734
    114          1           0       -0.790180    0.412146    3.747087
    115          1           0       -3.775734    1.433808    3.490239
    116          1           0       -3.517008    1.846122    1.821959
    117          1           0       -2.809463    0.394216    2.557519
    118          1           0       -1.099915    0.835888    6.187253
    119          1           0       -1.710328    2.424556    5.764842
    120          1           0       -2.689958    0.925202    5.436263
    121          7           0       -1.887829    3.089688   -0.331066
    122          6           0       -2.723461    3.875165   -1.215172
    123          6           0       -4.177118    3.740062   -0.784791
    124          8           0       -4.611223    2.792872   -0.147700
    125          6           0       -2.427998    3.537201   -2.669366
    126          8           0       -2.842457    2.209182   -2.934486
    127          1           0       -1.654159    2.160545   -0.672521
    128          1           0       -2.438980    4.922111   -1.041176
    129          1           0       -1.362893    3.612407   -2.865569
    130          1           0       -2.964114    4.160545   -3.378536
    131          1           0       -2.285117    1.499881   -2.595128
    132          7           0       -5.046369    4.663265   -1.215023
    133          6           0       -6.484620    4.613975   -1.077897
    134          6           0       -7.116299    3.267976   -1.421069
    135          8           0       -7.928636    2.792020   -0.629126
    136          6           0       -7.171687    5.808497   -1.713788
    137          1           0       -4.705109    5.420530   -1.785716
    138          1           0       -6.657097    4.596707    0.000552
    139          1           0       -6.567301    6.706372   -1.591160
    140          1           0       -7.454126    5.575499   -2.742058
    141          1           0       -8.089628    6.061167   -1.182711
    142          7           0       -6.665636    2.578349   -2.472838
    143          6           0       -7.258901    1.347760   -2.962314
    144          6           0       -6.958237    0.157152   -2.069367
    145          8           0       -7.678249   -0.838431   -2.083441
    146          6           0       -6.861292    1.118254   -4.418279
    147          1           0       -5.907947    2.978323   -2.995263
    148          1           0       -8.331776    1.518320   -3.013778
    149          1           0       -5.859538    1.423580   -4.734611
    150          1           0       -6.956651    0.067538   -4.700064
    151          1           0       -7.507002    1.601929   -5.151571
    152          7           0       -5.882180    0.311656   -1.294493
    153          6           0       -5.448097   -0.672368   -0.325901
    154          6           0       -6.088335   -0.411381    1.034459
    155          8           0       -6.298858   -1.350399    1.798217
    156          6           0       -3.928886   -0.701342   -0.191144
    157          6           0       -3.163953   -0.939558   -1.491233
    158          6           0       -1.666247   -0.723712   -1.324839
    159          8           0       -1.240199    0.413099   -1.655207
    160          8           0       -0.814582   -1.497640   -0.841619
    161          1           0       -5.367603    1.175415   -1.382982
    162          1           0       -5.765891   -1.661783   -0.648492
    163          1           0       -3.715915   -1.435010    0.589480
    164          1           0       -3.611431    0.229698    0.263705
    165          1           0       -3.674470   -0.254090   -2.170648
    166          1           0       -3.384379   -1.927083   -1.898179
    167          7           0       -6.384395    0.860336    1.309203
    168          6           0       -7.085528    1.146276    2.548861
    169          1           0       -7.802999    1.950216    2.383257
    170          1           0       -7.612846    0.253164    2.883023
    171          1           0       -6.367897    1.451422    3.310523
    172          1           0       -6.193615    1.575687    0.616039
    173         20           0        1.199101   -0.148082   -1.429389
    174          8           0        1.514664    0.179702   -4.138326
    175          1           0        1.149051    0.343950   -5.003572
    176          1           0        2.229656   -0.425953   -4.282087
 ---------------------------------------------------------------------

 SCF Done:  E(RB3LYP) =  -5333.64479375     A.U. after   17 cycles

 The electronic state is 1-A.
 Alpha  occ. eigenvalues -- -145.35838 -19.15855 -19.13823 -19.13369 -19.13090
 Alpha  occ. eigenvalues --  -19.12570 -19.11999 -19.11958 -19.11854 -19.11510
 Alpha  occ. eigenvalues --  -19.11458 -19.10975 -19.09192 -19.08717 -19.08180
 Alpha  occ. eigenvalues --  -19.06403 -19.06399 -19.06224 -19.05970 -19.04338
 Alpha  occ. eigenvalues --  -19.04130 -19.03814 -19.03612 -19.03486 -15.41706
 Alpha  occ. eigenvalues --  -14.56785 -14.39335 -14.37625 -14.37454 -14.37130
 Alpha  occ. eigenvalues --  -14.36905 -14.36634 -14.34994 -14.33993 -14.33560
 Alpha  occ. eigenvalues --  -14.33141 -14.31515 -14.31123 -14.30034 -14.29706
 Alpha  occ. eigenvalues --  -12.55302 -12.55265 -12.55264 -10.31981 -10.31818
 Alpha  occ. eigenvalues --  -10.30942 -10.30911 -10.30866 -10.30402 -10.30213
 Alpha  occ. eigenvalues --  -10.29106 -10.27970 -10.26942 -10.26582 -10.26475
 Alpha  occ. eigenvalues --  -10.25946 -10.25926 -10.25735 -10.25539 -10.25326
 Alpha  occ. eigenvalues --  -10.25301 -10.25144 -10.24638 -10.24478 -10.24319
 Alpha  occ. eigenvalues --  -10.23621 -10.23484 -10.23380 -10.23217 -10.22549
 Alpha  occ. eigenvalues --  -10.22498 -10.22447 -10.22400 -10.22153 -10.21905
 Alpha  occ. eigenvalues --  -10.20866 -10.20513 -10.20225 -10.20225 -10.20046
 Alpha  occ. eigenvalues --  -10.19955 -10.19778 -10.19656 -10.19470 -10.19460
 Alpha  occ. eigenvalues --  -10.18711 -10.18437 -10.18375 -10.18250 -10.18169
 Alpha  occ. eigenvalues --  -10.18082 -10.17814 -10.17522 -10.17442 -10.17008
 Alpha  occ. eigenvalues --  -10.16943 -10.14836  -1.78774  -1.12204  -1.08369
 Alpha  occ. eigenvalues --   -1.07568  -1.06670  -1.06355  -1.05706  -1.05547
 Alpha  occ. eigenvalues --   -1.04769  -1.04584  -1.04571  -1.04202  -1.03631
 Alpha  occ. eigenvalues --   -1.02114  -1.01741  -1.01595  -1.00857  -1.00366
 Alpha  occ. eigenvalues --   -1.00180  -1.00069  -0.99444  -0.99317  -0.98661
 Alpha  occ. eigenvalues --   -0.97363  -0.96246  -0.96063  -0.95856  -0.94523
 Alpha  occ. eigenvalues --   -0.94017  -0.93813  -0.93486  -0.92299  -0.91358
 Alpha  occ. eigenvalues --   -0.91221  -0.90786  -0.89651  -0.89539  -0.88897
 Alpha  occ. eigenvalues --   -0.88376  -0.87823  -0.87146  -0.87030  -0.85817
 Alpha  occ. eigenvalues --   -0.83838  -0.82437  -0.81601  -0.80360  -0.80278
 Alpha  occ. eigenvalues --   -0.79254  -0.78761  -0.78360  -0.77667  -0.76539
 Alpha  occ. eigenvalues --   -0.75629  -0.74943  -0.74788  -0.73497  -0.73421
 Alpha  occ. eigenvalues --   -0.73207  -0.72712  -0.71525  -0.71343  -0.70901
 Alpha  occ. eigenvalues --   -0.69981  -0.69718  -0.68605  -0.68182  -0.68153
 Alpha  occ. eigenvalues --   -0.67687  -0.66417  -0.66354  -0.65473  -0.64922
 Alpha  occ. eigenvalues --   -0.64680  -0.62996  -0.62647  -0.62292  -0.61630
 Alpha  occ. eigenvalues --   -0.61489  -0.61313  -0.61254  -0.60359  -0.60176
 Alpha  occ. eigenvalues --   -0.59384  -0.59367  -0.58920  -0.58183  -0.57964
 Alpha  occ. eigenvalues --   -0.57905  -0.57131  -0.56930  -0.56697  -0.56163
 Alpha  occ. eigenvalues --   -0.55927  -0.55418  -0.55301  -0.55151  -0.54851
 Alpha  occ. eigenvalues --   -0.54633  -0.54323  -0.54177  -0.53618  -0.53592
 Alpha  occ. eigenvalues --   -0.53550  -0.53292  -0.53170  -0.52439  -0.52086
 Alpha  occ. eigenvalues --   -0.51959  -0.51355  -0.50890  -0.50664  -0.50078
 Alpha  occ. eigenvalues --   -0.50012  -0.49724  -0.49585  -0.49464  -0.49182
 Alpha  occ. eigenvalues --   -0.48999  -0.48814  -0.48399  -0.48224  -0.47907
 Alpha  occ. eigenvalues --   -0.47891  -0.47736  -0.47526  -0.47443  -0.47324
 Alpha  occ. eigenvalues --   -0.46949  -0.46545  -0.46446  -0.46275  -0.46067
 Alpha  occ. eigenvalues --   -0.45683  -0.45628  -0.45477  -0.45214  -0.45076
 Alpha  occ. eigenvalues --   -0.45004  -0.44903  -0.44788  -0.44599  -0.44381
 Alpha  occ. eigenvalues --   -0.44063  -0.44032  -0.43637  -0.43537  -0.43398
 Alpha  occ. eigenvalues --   -0.43377  -0.43275  -0.43093  -0.42929  -0.42545
 Alpha  occ. eigenvalues --   -0.42417  -0.42377  -0.42171  -0.42138  -0.41863
 Alpha  occ. eigenvalues --   -0.41793  -0.41703  -0.41587  -0.41506  -0.41338
 Alpha  occ. eigenvalues --   -0.41106  -0.40882  -0.40815  -0.40681  -0.40553
 Alpha  occ. eigenvalues --   -0.40270  -0.40169  -0.40132  -0.40081  -0.39905
 Alpha  occ. eigenvalues --   -0.39887  -0.39808  -0.39462  -0.39442  -0.39227
 Alpha  occ. eigenvalues --   -0.39094  -0.38837  -0.38713  -0.38552  -0.38355
 Alpha  occ. eigenvalues --   -0.38274  -0.38214  -0.38177  -0.37923  -0.37890
 Alpha  occ. eigenvalues --   -0.37815  -0.37455  -0.37369  -0.37296  -0.36997
 Alpha  occ. eigenvalues --   -0.36809  -0.36594  -0.36150  -0.35936  -0.35903
 Alpha  occ. eigenvalues --   -0.35783  -0.35643  -0.35441  -0.35223  -0.35034
 Alpha  occ. eigenvalues --   -0.34845  -0.34745  -0.34437  -0.34348  -0.34094
 Alpha  occ. eigenvalues --   -0.34041  -0.33674  -0.33524  -0.33368  -0.33157
 Alpha  occ. eigenvalues --   -0.33098  -0.32755  -0.32520  -0.32203  -0.31943
 Alpha  occ. eigenvalues --   -0.31884  -0.31130  -0.30796  -0.30266  -0.30032
 Alpha  occ. eigenvalues --   -0.29787  -0.29602  -0.29552  -0.29382  -0.29294
 Alpha  occ. eigenvalues --   -0.29023  -0.28966  -0.28668  -0.27864  -0.27689
 Alpha  occ. eigenvalues --   -0.27537  -0.27412  -0.27220  -0.26872  -0.26149
 Alpha  occ. eigenvalues --   -0.25518  -0.25001  -0.24628  -0.24506  -0.24380
 Alpha  occ. eigenvalues --   -0.24159  -0.24069  -0.23930  -0.23874  -0.23406
 Alpha  occ. eigenvalues --   -0.23096  -0.22980  -0.22327  -0.22120  -0.21709
 Alpha  occ. eigenvalues --   -0.21583  -0.21524  -0.21170  -0.20430  -0.19891
 Alpha  occ. eigenvalues --   -0.19142  -0.18793  -0.18227
 Alpha virt. eigenvalues --   -0.09392  -0.03883  -0.02964  -0.02481  -0.01629
 Alpha virt. eigenvalues --   -0.01150  -0.00632  -0.00555  -0.00335   0.00116
 Alpha virt. eigenvalues --    0.00425   0.00830   0.01282   0.01409   0.01663

 Mulliken charges:
               1
     1  C    0.062343
     2  C    0.021065
     3  O   -0.294165
     4  H    0.021674
     5  H    0.056504
     6  H   -0.026432
     7  N   -0.117177
     8  C    0.183128
     9  C    0.039343
    10  O   -0.290753
    11  C    0.040771
    12  C    0.150414
    13  O   -0.368759
    14  O   -0.471930
    15  H    0.121327
    16  H   -0.002317
    17  H    0.013224
    18  H    0.015667
    19  N   -0.164282
    20  C    0.088376
    21  C    0.066549
    22  O   -0.282416
    23  C    0.078011
    24  C    0.006145
    25  C   -0.046908
    26  C    0.002545
    27  N    0.084878
    28  H    0.159571
    29  H   -0.004182
    30  H   -0.007834
    31  H    0.017291
    32  H    0.018987
    33  H    0.040282
    34  H    0.055514
    35  H   -0.000892
    36  H    0.071397
    37  H    0.095549
    38  H    0.176512
    39  H    0.185208
    40  H    0.189796
    41  N   -0.134808
    42  C    0.110496
    43  C    0.044930
    44  O   -0.271151
    45  C    0.151333
    46  C    0.093453
    47  O   -0.480461
    48  O   -0.376716
    49  H    0.134787
    50  H    0.027983
    51  H   -0.017204
    52  H    0.019104
    53  N   -0.182629
    54  C    0.244223
    55  C    0.026947
    56  O   -0.281834
    57  H    0.131826
    58  H    0.001111
    59  H    0.029554
    60  N   -0.154886
    61  C    0.128773
    62  C    0.044715
    63  O   -0.298680
    64  C    0.115569
    65  C    0.064831
    66  N   -0.029330
    67  O   -0.389765
    68  H    0.134351
    69  H    0.032358
    70  H    0.081197
    71  H   -0.004899
    72  H    0.134085
    73  H    0.134628
    74  N   -0.153889
    75  C    0.251492
    76  C    0.017506
    77  O   -0.316579
    78  H    0.131576
    79  H    0.038119
    80  H    0.032741
    81  N   -0.132149
    82  C    0.171916
    83  C    0.157613
    84  O   -0.391733
    85  C    0.092899
    86  C   -0.058639
    87  C    0.019636
    88  C    0.029985
    89  C   -0.028852
    90  C   -0.048514
    91  C    0.190905
    92  O   -0.192818
    93  H    0.153870
    94  H    0.006572
    95  H    0.000221
    96  H   -0.038563
    97  H   -0.035319
    98  H   -0.032131
    99  H   -0.021006
   100  H   -0.055539
   101  H    0.174476
   102  N   -0.110235
   103  C    0.173069
   104  C    0.070370
   105  O   -0.278297
   106  C   -0.088987
   107  C    0.021169
   108  C    0.008111
   109  C    0.036487
   110  H    0.127296
   111  H   -0.021433
   112  H   -0.008339
   113  H   -0.027570
   114  H    0.005535
   115  H    0.002423
   116  H    0.045601
   117  H    0.020732
   118  H   -0.001053
   119  H    0.004032
   120  H    0.016044
   121  N   -0.149026
   122  C    0.063618
   123  C    0.100876
   124  O   -0.283677
   125  C    0.288141
   126  O   -0.374656
   127  H    0.139172
   128  H    0.014824
   129  H    0.014680
   130  H   -0.012875
   131  H    0.186119
   132  N   -0.110849
   133  C    0.087180
   134  C    0.032750
   135  O   -0.267693
   136  C    0.056075
   137  H    0.110258
   138  H    0.019770
   139  H    0.023729
   140  H    0.024822
   141  H    0.040597
   142  N   -0.145598
   143  C    0.114475
   144  C    0.083244
   145  O   -0.273696
   146  C    0.018831
   147  H    0.115972
   148  H    0.024926
   149  H    0.017390
   150  H    0.029338
   151  H    0.012781
   152  N   -0.179472
   153  C    0.147281
   154  C    0.073423
   155  O   -0.309307
   156  C   -0.042827
   157  C    0.117914
   158  C    0.234566
   159  O   -0.499652
   160  O   -0.404763
   161  H    0.142791
   162  H   -0.008931
   163  H    0.033046
   164  H   -0.011290
   165  H   -0.012752
   166  H   -0.002103
   167  N   -0.169243
   168  C    0.136333
   169  H    0.021708
   170  H    0.028470
   171  H    0.009860
   172  H    0.151309
   173  Ca   1.317534
   174  O   -0.307685
   175  H    0.168349
   176  H    0.157275
 Sum of Mulliken charges =  -0.00000

 Dipole moment (field-independent basis, Debye):
    X=            -26.4272    Y=              2.6668    Z=              7.3307  Tot=             27.5544
 Quadrupole moment (field-independent basis, Debye-Ang):
   XX=           -659.8681   YY=           -461.5209   ZZ=           -482.6243
   XY=            119.8802   XZ=            -28.8349   YZ=           -133.2270

 ESP charges:
               1
     1  C   -0.537742
     2  C    0.833985
     3  O   -0.604476
     4  H    0.130184
     5  H    0.153271
     6  H    0.127057
     7  N   -0.648883
     8  C    0.243657
     9  C    0.328671
    10  O   -0.546938
    11  C   -0.081878
    12  C    0.794769
    13  O   -0.706137
    14  O   -0.804308
    15  H    0.312380
    16  H   -0.001736
    17  H    0.044868
    18  H    0.024944
    19  N   -0.080814
    20  C    0.059104
    21  C    0.482063
    22  O   -0.555363
    23  C   -0.161505
    24  C    0.172246
    25  C   -0.360610
    26  C    0.277728
    27  N   -0.440901
    28  H    0.147849
    29  H    0.039395
    30  H    0.043889
    31  H    0.042981
    32  H    0.018420
    33  H   -0.058237
    34  H    0.143359
    35  H    0.085671
    36  H    0.047739
    37  H    0.012865
    38  H    0.335710
    39  H    0.314039
    40  H    0.345342
    41  N   -0.399712
    42  C    0.269741
    43  C    0.328480
    44  O   -0.488797
    45  C   -0.434501
    46  C    0.812751
    47  O   -0.805658
    48  O   -0.685352
    49  H    0.248122
    50  H    0.071654
    51  H    0.089780
    52  H    0.122843
    53  N   -0.148521
    54  C   -0.188956
    55  C    0.523952
    56  O   -0.564946
    57  H    0.122446
    58  H    0.109375
    59  H    0.101151
    60  N   -0.133225
    61  C   -0.206767
    62  C    0.470197
    63  O   -0.522547
    64  C   -0.075709
    65  C    0.545805
    66  N   -0.766300
    67  O   -0.625174
    68  H    0.228089
    69  H    0.157298
    70  H    0.121036
    71  H    0.048882
    72  H    0.369212
    73  H    0.389134
    74  N   -0.252603
    75  C   -0.204589
    76  C    0.682817
    77  O   -0.604261
    78  H    0.216856
    79  H    0.125278
    80  H    0.126160
    81  N   -0.533657
    82  C    0.215173
    83  C    0.601541
    84  O   -0.663913
    85  C   -0.194018
    86  C    0.026946
    87  C   -0.194333
    88  C   -0.013148
    89  C   -0.236898
    90  C   -0.395673
    91  C    0.432253
    92  O   -0.551879
    93  H    0.348029
    94  H    0.065135
    95  H    0.069273
    96  H    0.061191
    97  H    0.167532
    98  H    0.091116
    99  H    0.158357
   100  H    0.138564
   101  H    0.407660
   102  N   -0.684497
   103  C    0.231331
   104  C    0.565681
   105  O   -0.562979
   106  C    0.111588
   107  C    0.286174
   108  C   -0.247189
   109  C   -0.387493
   110  H    0.321740
   111  H    0.025793
   112  H   -0.023267
   113  H   -0.047198
   114  H   -0.077347
   115  H    0.082209
   116  H   -0.025456
   117  H    0.070378
   118  H    0.087027
   119  H    0.082135
   120  H    0.085091
   121  N   -0.249850
   122  C   -0.267572
   123  C    0.537095
   124  O   -0.382678
   125  C    0.184026
   126  O   -0.598456
   127  H    0.229093
   128  H    0.113910
   129  H    0.049768
   130  H    0.045394
   131  H    0.380202
   132  N   -0.452846
   133  C    0.155304
   134  C    0.609347
   135  O   -0.573651
   136  C   -0.330588
   137  H    0.274769
   138  H    0.051947
   139  H    0.111731
   140  H    0.075928
   141  H    0.115801
   142  N   -0.510184
   143  C    0.092844
   144  C    0.279728
   145  O   -0.499250
   146  C   -0.259636
   147  H    0.305123
   148  H    0.118062
   149  H    0.071314
   150  H    0.105379
   151  H    0.076357
   152  N    0.072903
   153  C   -0.211735
   154  C    0.504478
   155  O   -0.581380
   156  C   -0.036128
   157  C   -0.032898
   158  C    0.546503
   159  O   -0.640159
   160  O   -0.569954
   161  H    0.124148
   162  H    0.100029
   163  H    0.085494
   164  H    0.031678
   165  H   -0.035960
   166  H    0.058415
   167  N   -0.080399
   168  C   -0.210720
   169  H    0.091739
   170  H    0.105368
   171  H    0.061819
   172  H    0.129753
   173  Ca   1.612901
   174  O   -0.817468
   175  H    0.418115
   176  H    0.375972
 Sum of ESP charges =  -0.00000

 Normal termination of Gaussian 16 at Wed Sep 18 20:19:47 2019.
