 Gaussian 16, Revision C.01,
 Gaussian 16:  ES64L-G16RevC.01  3-Jul-2019

 ----------------------------------------------------------------------
 #b3lyp/svp scf=(tight,noincore,xqc) Test #IOP(5/87=12) Density=Current
  Pop=(MK,readradii) iop(6/33=2) iop(6/42=6)
 ----------------------------------------------------------------------

 -----------------------------------
 apoCaM-CA-Ng.loop3.water9.frame1190
 -----------------------------------
 Symbolic Z-matrix:
 Charge =  0 Multiplicity = 1

                         Standard orientation:
 ---------------------------------------------------------------------
 Center     Atomic      Atomic             Coordinates (Angstroms)
 Number     Number       Type             X           Y           Z
 ---------------------------------------------------------------------
      1          6           0        6.670730    0.535389   -2.939854
      2          6           0        5.808972    0.843247   -1.724659
      3          8           0        6.204708    1.615564   -0.817015
      4          1           0        6.666202    1.391345   -3.614400
      5          1           0        7.691923    0.331626   -2.618982
      6          1           0        6.271400   -0.336762   -3.457604
      7          7           0        4.658765    0.189017   -1.529703
      8          6           0        3.722997    0.441787   -0.354355
      9          6           0        4.344254   -0.037031    0.995784
     10          8           0        4.292170    0.655008    2.005471
     11          6           0        2.267880   -0.115718   -0.622728
     12          6           0        2.118014   -1.623026   -0.965893
     13          8           0        3.122362   -2.349439   -0.742936
     14          8           0        1.026823   -2.082192   -1.441360
     15          1           0        4.422467   -0.452951   -2.266208
     16          1           0        3.546374    1.516710   -0.310270
     17          1           0        1.867224    0.593593   -1.353586
     18          1           0        1.618961   -0.006341    0.253195
     19          7           0        4.875392   -1.303658    1.060180
     20          6           0        5.580051   -1.759284    2.281065
     21          6           0        4.683587   -1.929007    3.485659
     22          8           0        3.801198   -2.683379    3.457131
     23          6           0        6.293023   -3.028183    1.965682
     24          6           0        6.974765   -3.128582    0.587224
     25          6           0        7.863580   -4.362981    0.622825
     26          6           0        7.258841   -5.742828    0.988493
     27          7           0        6.360167   -6.316155   -0.105847
     28          1           0        4.671474   -1.992845    0.363948
     29          1           0        6.268434   -1.006598    2.662238
     30          1           0        5.632365   -3.893834    2.045563
     31          1           0        7.074370   -3.120123    2.719501
     32          1           0        7.500234   -2.226469    0.278882
     33          1           0        6.282587   -3.255045   -0.241085
     34          1           0        8.657328   -4.124879    1.334001
     35          1           0        8.474259   -4.455943   -0.282564
     36          1           0        6.642144   -5.625001    1.878213
     37          1           0        8.064395   -6.433098    1.262192
     38          1           0        6.859371   -6.338252   -0.989989
     39          1           0        6.170499   -7.281872    0.138521
     40          1           0        5.477619   -5.834820   -0.100766
     41          7           0        4.758215   -1.117232    4.553719
     42          6           0        3.859374   -0.926639    5.673656
     43          6           0        2.680912    0.054435    5.462184
     44          8           0        1.855108    0.229848    6.319376
     45          6           0        4.698425   -0.473982    6.937655
     46          6           0        5.773818    0.595196    6.829996
     47          8           0        6.379314    0.977898    7.906757
     48          8           0        6.059374    1.120353    5.696520
     49          1           0        5.547079   -0.486218    4.550055
     50          1           0        3.487118   -1.912793    5.936577
     51          1           0        5.232961   -1.304439    7.386556
     52          1           0        4.013534   -0.161729    7.715358
     53          7           0        2.605545    0.760853    4.372050
     54          6           0        1.811506    2.022219    4.113088
     55          6           0        1.026163    1.834722    2.764206
     56          8           0        0.092848    1.047229    2.715443
     57          1           0        3.341194    0.493975    3.723439
     58          1           0        2.572727    2.798995    4.019482
     59          1           0        1.097020    2.182435    4.922556
     60          7           0        1.238944    2.635204    1.719049
     61          6           0        2.173810    3.837958    1.647580
     62          6           0        2.577042    4.063438    0.140144
     63          8           0        1.730045    3.977235   -0.749892
     64          6           0        1.397255    4.997183    2.272848
     65          6           0        2.147832    6.294618    2.001196
     66          7           0        3.344440    6.495200    2.555540
     67          8           0        1.826334    7.083511    1.123707
     68          1           0        0.708087    2.320025    0.912232
     69          1           0        3.101073    3.575141    2.150780
     70          1           0        1.410663    4.742995    3.332191
     71          1           0        0.396506    5.097720    1.859454
     72          1           0        3.651410    5.953310    3.351922
     73          1           0        3.945150    7.269179    2.302158
     74          7           0        3.845064    4.040382   -0.255820
     75          6           0        5.086507    4.152306    0.523533
     76          6           0        6.223728    4.637718   -0.400211
     77          8           0        6.010115    5.276294   -1.481085
     78          1           0        3.976528    4.224229   -1.233531
     79          1           0        5.293677    3.212856    1.020941
     80          1           0        4.914746    4.943673    1.251776
     81          7           0        7.449657    4.134219   -0.106464
     82          6           0        8.624783    4.392613   -0.907220
     83          6           0        9.496038    3.152634   -1.109864
     84          8           0        9.458842    2.283770   -0.266187
     85          6           0        9.385050    5.581247   -0.308603
     86          6           0       10.550584    6.145918   -1.028101
     87          6           0       11.871537    5.925037   -0.571268
     88          6           0       10.331259    6.850793   -2.237707
     89          6           0       13.003662    6.445769   -1.258313
     90          6           0       11.439679    7.419460   -2.884253
     91          6           0       12.757564    7.247046   -2.355715
     92          8           0       13.874052    7.694640   -3.120903
     93          1           0        7.566541    3.563250    0.716781
     94          1           0        8.269284    4.627896   -1.909848
     95          1           0        9.729020    5.162748    0.637465
     96          1           0        8.606065    6.292231   -0.055457
     97          1           0       12.015319    5.267938    0.270900
     98          1           0        9.312823    6.974401   -2.594933
     99          1           0       14.014496    6.193890   -0.993223
    100          1           0       11.273245    7.871189   -3.852158
    101          1           0       13.709192    8.256088   -3.877009
    102          7           0       10.352205    3.156456   -2.198471
    103          6           0       11.246703    2.078961   -2.656377
    104          6           0       12.326629    1.791389   -1.632042
    105          8           0       12.661691    2.657421   -0.814043
    106          6           0       11.864469    2.461062   -4.035965
    107          6           0       12.882590    3.589905   -4.097148
    108          6           0       12.312641    1.145102   -4.675333
    109          6           0       13.285473    3.992662   -5.552885
    110          1           0       10.370517    3.969487   -2.804396
    111          1           0       10.586603    1.236364   -2.852844
    112          1           0       11.040172    2.875152   -4.625850
    113          1           0       13.725918    3.132564   -3.583205
    114          1           0       12.478355    4.462288   -3.578648
    115          1           0       12.289099    1.255709   -5.760787
    116          1           0       13.372689    0.998046   -4.473409
    117          1           0       11.735331    0.281753   -4.349387
    118          1           0       13.850071    3.222159   -6.073418
    119          1           0       12.398875    4.369857   -6.068897
    120          1           0       14.039320    4.771067   -5.507052
    121          7           0       12.841510    0.521527   -1.585680
    122          6           0       13.765455   -0.105739   -0.670332
    123          6           0       12.955807   -1.226757    0.044363
    124          8           0       12.358379   -2.122904   -0.548343
    125          6           0       14.954369   -0.701121   -1.408034
    126          8           0       15.652460    0.261779   -2.171246
    127          1           0       12.613897   -0.076309   -2.376746
    128          1           0       14.147497    0.612715    0.048603
    129          1           0       14.647925   -1.446461   -2.134850
    130          1           0       15.678712   -1.139655   -0.729201
    131          1           0       16.566683    0.005441   -2.322865
    132          7           0       12.793125   -1.179616    1.330408
    133          6           0       11.993713   -2.037426    2.171659
    134          6           0       12.304281   -3.561563    1.937665
    135          8           0       11.359212   -4.344723    2.015168
    136          6           0       10.511374   -1.692136    2.203986
    137          1           0       13.129071   -0.358452    1.789678
    138          1           0       12.498219   -1.852664    3.119888
    139          1           0        9.967154   -2.361286    2.870066
    140          1           0       10.305470   -0.645476    2.456981
    141          1           0       10.079703   -1.813884    1.206520
    142          7           0       13.563022   -3.903313    1.562860
    143          6           0       14.053171   -5.255320    1.296907
    144          6           0       13.437680   -5.963026    0.065638
    145          8           0       13.549535   -7.222037   -0.047852
    146          6           0       14.230057   -6.106099    2.521034
    147          1           0       14.231872   -3.148464    1.495465
    148          1           0       15.031279   -5.125441    0.846533
    149          1           0       13.625195   -5.763623    3.354251
    150          1           0       14.100782   -7.159058    2.271903
    151          1           0       15.265023   -6.119100    2.887882
    152          7           0       12.863460   -5.254525   -0.918942
    153          6           0       12.128353   -5.720751   -2.091226
    154          6           0       12.961530   -5.701607   -3.389205
    155          8           0       12.935529   -6.600781   -4.263624
    156          6           0       10.943442   -4.766517   -2.336433
    157          6           0        9.866612   -5.303171   -3.348825
    158          6           0        9.031443   -6.424177   -2.777479
    159          8           0        9.504355   -7.575653   -2.814324
    160          8           0        7.903040   -6.184289   -2.391007
    161          1           0       12.724931   -4.293118   -0.705852
    162          1           0       11.794799   -6.737553   -1.885425
    163          1           0       11.293161   -3.822692   -2.759978
    164          1           0       10.571139   -4.511184   -1.347901
    165          1           0       10.375639   -5.736754   -4.206844
    166          1           0        9.234108   -4.461485   -3.633788
    167          7           0       13.829182   -4.704377   -3.518484
    168          6           0       14.842005   -4.606059   -4.632182
    169          1           0       14.325860   -4.588101   -5.591856
    170          1           0       15.423041   -3.691645   -4.515391
    171          1           0       15.508732   -5.468182   -4.595103
    172          1           0       13.985242   -4.292963   -2.612844
    173         20           0      -51.077506   -0.481679   -0.802027
    174          8           0      -50.581173   -1.246247   -3.507852
    175          1           0      -51.128655   -1.709322   -4.134530
    176          1           0      -49.703236   -1.619667   -3.633487
    177          8           0      -49.726694   -0.914936    1.795297
    178          8           0      -52.772107   -1.714958    1.018947
    179          1           0      -50.116378   -1.578950    2.365500
    180          1           0      -53.418660   -2.404608    0.849379
    181          1           0      -49.497075   -0.194598    2.390687
    182          1           0      -53.125791   -1.232641    1.766997
    183          8           0      -52.502197    1.174985    0.778580
    184          1           0      -52.648839    1.138875    1.715753
    185          1           0      -52.429033    2.115006    0.582856
    186          8           0      -50.772370   -3.126029   -0.641694
    187          1           0      -49.967911   -3.579390   -0.387315
    188          1           0      -51.473633   -3.767719   -0.509921
    189          8           0      -50.965971    1.711651   -2.355044
    190          1           0      -50.755680    1.333183   -3.208706
    191          1           0      -50.672957    2.624349   -2.416905
    192          8           0      -53.377576   -0.555191   -2.147715
    193          1           0      -53.471826   -1.280830   -2.758833
    194          1           0      -53.743312    0.204550   -2.614116
    195          8           0      -49.393210    1.645971    0.114897
    196          1           0      -49.567724    1.429538    1.031904
    197          1           0      -48.699699    2.297398    0.154720
    198          8           0      -48.382293   -0.936110   -1.237249
    199          1           0      -47.802237   -1.664638   -1.435448
    200          1           0      -47.812587   -0.162108   -1.229789
 ---------------------------------------------------------------------

 SCF Done:  E(RB3LYP) =  -5943.65835122     A.U. after   33 cycles
 SCF Done:  E(RB3LYP) =  -5944.17579241     a.u. after   43 cycles

 The electronic state is 1-A.
 Alpha  occ. eigenvalues -- -145.48827 -19.25095 -19.25033 -19.24999 -19.24972
 Alpha  occ. eigenvalues --  -19.24589 -19.24393 -19.24376 -19.24307 -19.24006
 Alpha  occ. eigenvalues --  -19.12970 -19.12897 -19.10017 -19.08951 -19.07902
 Alpha  occ. eigenvalues --  -19.06766 -19.05939 -19.05539 -19.05500 -19.04758
 Alpha  occ. eigenvalues --  -19.03980 -19.03904 -19.03694 -19.03021 -19.02915
 Alpha  occ. eigenvalues --  -19.02684 -19.02452 -19.01789 -19.01770 -19.01589
 Alpha  occ. eigenvalues --  -19.01146 -19.00340 -15.54492 -14.43601 -14.36413
 Alpha  occ. eigenvalues --  -14.35099 -14.34487 -14.32312 -14.31822 -14.31683
 Alpha  occ. eigenvalues --  -14.31366 -14.31204 -14.30563 -14.30203 -14.29748
 Alpha  occ. eigenvalues --  -14.28899 -14.27758 -14.27103 -12.68102 -12.68085
 Alpha  occ. eigenvalues --  -12.68078 -10.28717 -10.28014 -10.27058 -10.25404
 Alpha  occ. eigenvalues --  -10.25278 -10.25204 -10.24374 -10.24360 -10.24337
 Alpha  occ. eigenvalues --  -10.24329 -10.23700 -10.23667 -10.23454 -10.23418
 Alpha  occ. eigenvalues --  -10.22998 -10.22875 -10.22486 -10.22230 -10.21772
 Alpha  occ. eigenvalues --  -10.21020 -10.20964 -10.20849 -10.20541 -10.19984
 Alpha  occ. eigenvalues --  -10.19882 -10.19473 -10.19341 -10.18891 -10.18635
 Alpha  occ. eigenvalues --  -10.18441 -10.18306 -10.17852 -10.17831 -10.17411
 Alpha  occ. eigenvalues --  -10.17188 -10.17035 -10.16861 -10.16804 -10.16671
 Alpha  occ. eigenvalues --  -10.16580 -10.16578 -10.16473 -10.16454 -10.16443
 Alpha  occ. eigenvalues --  -10.16340 -10.15874 -10.15803 -10.15619 -10.15614
 Alpha  occ. eigenvalues --  -10.15479 -10.14646 -10.13214 -10.12505 -10.11830
 Alpha  occ. eigenvalues --   -1.91158  -1.18672  -1.18533  -1.18491  -1.11320
 Alpha  occ. eigenvalues --   -1.11087  -1.10896  -1.10821  -1.10800  -1.10518
 Alpha  occ. eigenvalues --   -1.10306  -1.10225  -1.09878  -1.04412  -1.01367
 Alpha  occ. eigenvalues --   -1.01065  -1.00205  -0.99794  -0.99651  -0.99283
 Alpha  occ. eigenvalues --   -0.98711  -0.98484  -0.97686  -0.97575  -0.97199
 Alpha  occ. eigenvalues --   -0.96463  -0.96463  -0.96267  -0.95940  -0.95788
 Alpha  occ. eigenvalues --   -0.95764  -0.94372  -0.94113  -0.93327  -0.91017
 Alpha  occ. eigenvalues --   -0.90714  -0.88550  -0.88025  -0.87478  -0.86176
 Alpha  occ. eigenvalues --   -0.86005  -0.85932  -0.85912  -0.85740  -0.85624
 Alpha  occ. eigenvalues --   -0.85202  -0.84815  -0.84664  -0.84384  -0.83038
 Alpha  occ. eigenvalues --   -0.82118  -0.79888  -0.78349  -0.78033  -0.75958
 Alpha  occ. eigenvalues --   -0.75740  -0.74607  -0.73984  -0.73639  -0.73556
 Alpha  occ. eigenvalues --   -0.72067  -0.71653  -0.71611  -0.70582  -0.70563
 Alpha  occ. eigenvalues --   -0.68478  -0.68447  -0.68112  -0.67551  -0.66952
 Alpha  occ. eigenvalues --   -0.66861  -0.66298  -0.65710  -0.64996  -0.64716
 Alpha  occ. eigenvalues --   -0.64553  -0.64375  -0.64334  -0.64004  -0.63781
 Alpha  occ. eigenvalues --   -0.63713  -0.63699  -0.63164  -0.63162  -0.62662
 Alpha  occ. eigenvalues --   -0.62617  -0.61969  -0.61583  -0.60307  -0.59904
 Alpha  occ. eigenvalues --   -0.59534  -0.59154  -0.58911  -0.58451  -0.57711
 Alpha  occ. eigenvalues --   -0.57096  -0.56902  -0.56566  -0.56456  -0.56122
 Alpha  occ. eigenvalues --   -0.55641  -0.55263  -0.54808  -0.54223  -0.54082
 Alpha  occ. eigenvalues --   -0.53854  -0.53654  -0.53355  -0.52912  -0.52680
 Alpha  occ. eigenvalues --   -0.52514  -0.52502  -0.51991  -0.51851  -0.51714
 Alpha  occ. eigenvalues --   -0.51429  -0.51284  -0.51218  -0.51146  -0.50971
 Alpha  occ. eigenvalues --   -0.50725  -0.50188  -0.50154  -0.49681  -0.49629
 Alpha  occ. eigenvalues --   -0.49489  -0.49340  -0.49229  -0.48906  -0.48710
 Alpha  occ. eigenvalues --   -0.48233  -0.47628  -0.47246  -0.47021  -0.46901
 Alpha  occ. eigenvalues --   -0.46381  -0.46220  -0.46172  -0.46097  -0.45957
 Alpha  occ. eigenvalues --   -0.45685  -0.45452  -0.45046  -0.44718  -0.44458
 Alpha  occ. eigenvalues --   -0.44079  -0.43909  -0.43524  -0.43323  -0.43218
 Alpha  occ. eigenvalues --   -0.43144  -0.43076  -0.43025  -0.42875  -0.42753
 Alpha  occ. eigenvalues --   -0.42746  -0.42564  -0.42358  -0.42215  -0.42152
 Alpha  occ. eigenvalues --   -0.42115  -0.41978  -0.41882  -0.41819  -0.41690
 Alpha  occ. eigenvalues --   -0.41665  -0.41560  -0.41389  -0.41313  -0.41157
 Alpha  occ. eigenvalues --   -0.41116  -0.41097  -0.40780  -0.40764  -0.40627
 Alpha  occ. eigenvalues --   -0.40392  -0.40255  -0.40106  -0.39951  -0.39772
 Alpha  occ. eigenvalues --   -0.39402  -0.39247  -0.39140  -0.38800  -0.38644
 Alpha  occ. eigenvalues --   -0.38570  -0.38534  -0.38254  -0.38101  -0.37794
 Alpha  occ. eigenvalues --   -0.37725  -0.37501  -0.37342  -0.37268  -0.37170
 Alpha  occ. eigenvalues --   -0.37095  -0.37073  -0.36905  -0.36787  -0.36741
 Alpha  occ. eigenvalues --   -0.36622  -0.36532  -0.36318  -0.36153  -0.36128
 Alpha  occ. eigenvalues --   -0.35866  -0.35833  -0.35770  -0.35461  -0.35411
 Alpha  occ. eigenvalues --   -0.35239  -0.35178  -0.34888  -0.34748  -0.34729
 Alpha  occ. eigenvalues --   -0.34687  -0.34456  -0.34424  -0.34332  -0.34182
 Alpha  occ. eigenvalues --   -0.33970  -0.33710  -0.33614  -0.33548  -0.33495
 Alpha  occ. eigenvalues --   -0.33412  -0.33357  -0.33069  -0.32997  -0.32617
 Alpha  occ. eigenvalues --   -0.32372  -0.32334  -0.32071  -0.31975  -0.31777
 Alpha  occ. eigenvalues --   -0.31661  -0.31584  -0.31560  -0.31522  -0.30996
 Alpha  occ. eigenvalues --   -0.30816  -0.30705  -0.30608  -0.30535  -0.30067
 Alpha  occ. eigenvalues --   -0.29763  -0.29620  -0.29601  -0.29284  -0.29022
 Alpha  occ. eigenvalues --   -0.28946  -0.28632  -0.27989  -0.27783  -0.27613
 Alpha  occ. eigenvalues --   -0.26670  -0.26025  -0.24107  -0.23879  -0.23732
 Alpha  occ. eigenvalues --   -0.23541  -0.23271  -0.23240  -0.22823  -0.22557
 Alpha  occ. eigenvalues --   -0.22456  -0.22137  -0.21820  -0.21480  -0.21399
 Alpha  occ. eigenvalues --   -0.21204  -0.21157  -0.20953  -0.20261  -0.19913
 Alpha  occ. eigenvalues --   -0.19814  -0.19743  -0.19632  -0.19415  -0.18963
 Alpha  occ. eigenvalues --   -0.18881  -0.18536  -0.18402  -0.18261  -0.18110
 Alpha  occ. eigenvalues --   -0.17921  -0.17845  -0.17404  -0.17277  -0.16526
 Alpha  occ. eigenvalues --   -0.15270  -0.15122  -0.14716
 Alpha virt. eigenvalues --   -0.14528  -0.08718  -0.07396  -0.06861  -0.04594
 Alpha virt. eigenvalues --   -0.03778  -0.02402  -0.02004  -0.01584  -0.00335
 Alpha virt. eigenvalues --    0.00346   0.00627   0.01397   0.01937   0.01973

 Mulliken charges:
               1
     1  C    0.063984
     2  C    0.023849
     3  O   -0.333278
     4  H    0.038918
     5  H    0.044319
     6  H    0.002704
     7  N   -0.137803
     8  C    0.158292
     9  C    0.161815
    10  O   -0.307243
    11  C   -0.040415
    12  C    0.140315
    13  O   -0.355411
    14  O   -0.293965
    15  H    0.115204
    16  H    0.006445
    17  H    0.028088
    18  H    0.057299
    19  N   -0.153766
    20  C    0.208035
    21  C   -0.003784
    22  O   -0.207894
    23  C   -0.036469
    24  C    0.027436
    25  C   -0.026070
    26  C    0.029186
    27  N    0.065067
    28  H    0.132681
    29  H   -0.019651
    30  H    0.003917
    31  H   -0.004206
    32  H    0.019065
    33  H    0.001917
    34  H    0.027423
    35  H    0.033294
    36  H    0.044424
    37  H    0.072171
    38  H    0.151360
    39  H    0.169251
    40  H    0.184279
    41  N   -0.150963
    42  C    0.156584
    43  C    0.030699
    44  O   -0.269882
    45  C    0.002110
    46  C    0.134901
    47  O   -0.313648
    48  O   -0.322567
    49  H    0.121287
    50  H    0.007810
    51  H    0.008089
    52  H    0.032746
    53  N   -0.138563
    54  C    0.247319
    55  C    0.002168
    56  O   -0.262256
    57  H    0.139570
    58  H   -0.006758
    59  H    0.042825
    60  N   -0.135094
    61  C    0.007018
    62  C    0.099277
    63  O   -0.282248
    64  C    0.191503
    65  C   -0.031514
    66  N   -0.060704
    67  O   -0.247339
    68  H    0.140459
    69  H    0.028114
    70  H    0.003142
    71  H    0.030096
    72  H    0.114853
    73  H    0.130802
    74  N   -0.148567
    75  C    0.216347
    76  C    0.070679
    77  O   -0.332326
    78  H    0.132798
    79  H    0.062036
    80  H   -0.011411
    81  N   -0.118067
    82  C    0.072134
    83  C    0.136864
    84  O   -0.253620
    85  C    0.181286
    86  C   -0.068127
    87  C    0.035127
    88  C   -0.035053
    89  C   -0.017073
    90  C   -0.037350
    91  C    0.203877
    92  O   -0.270481
    93  H    0.132965
    94  H    0.003919
    95  H   -0.022562
    96  H    0.005692
    97  H   -0.009693
    98  H   -0.004536
    99  H   -0.020106
   100  H   -0.037093
   101  H    0.170559
   102  N   -0.173280
   103  C    0.116698
   104  C    0.127181
   105  O   -0.270677
   106  C   -0.145459
   107  C    0.025569
   108  C    0.040315
   109  C    0.023917
   110  H    0.133354
   111  H    0.013621
   112  H   -0.009635
   113  H    0.013447
   114  H    0.028079
   115  H    0.013031
   116  H    0.012244
   117  H    0.019593
   118  H    0.005966
   119  H    0.012377
   120  H    0.007038
   121  N   -0.148149
   122  C    0.149805
   123  C    0.044566
   124  O   -0.294760
   125  C    0.219169
   126  O   -0.313795
   127  H    0.121075
   128  H    0.003933
   129  H   -0.002742
   130  H   -0.013686
   131  H    0.170512
   132  N   -0.097806
   133  C    0.056464
   134  C    0.085726
   135  O   -0.253374
   136  C    0.079400
   137  H    0.121590
   138  H    0.005547
   139  H    0.041874
   140  H    0.030155
   141  H    0.039976
   142  N   -0.148466
   143  C    0.072551
   144  C    0.062218
   145  O   -0.301866
   146  C    0.089776
   147  H    0.112841
   148  H    0.012456
   149  H    0.020903
   150  H    0.035192
   151  H   -0.014923
   152  N   -0.144097
   153  C    0.115013
   154  C    0.056476
   155  O   -0.288136
   156  C   -0.014097
   157  C    0.098253
   158  C    0.059227
   159  O   -0.299024
   160  O   -0.370117
   161  H    0.133869
   162  H    0.040663
   163  H   -0.015279
   164  H    0.007606
   165  H    0.017854
   166  H   -0.023486
   167  N   -0.165996
   168  C    0.146693
   169  H    0.040001
   170  H   -0.001066
   171  H    0.030192
   172  H    0.095194
   173  Ca   0.486094
   174  O   -0.275487
   175  H    0.155263
   176  H    0.169511
   177  O   -0.267291
   178  O   -0.277333
   179  H    0.168263
   180  H    0.167769
   181  H    0.135157
   182  H    0.155945
   183  O   -0.274647
   184  H    0.140196
   185  H    0.181911
   186  O   -0.289326
   187  H    0.176944
   188  H    0.165061
   189  O   -0.295247
   190  H    0.173543
   191  H    0.179290
   192  O   -0.281608
   193  H    0.157947
   194  H    0.188799
   195  O   -0.268556
   196  H    0.130359
   197  H    0.162184
   198  O   -0.280691
   199  H    0.163073
   200  H    0.174753
 Sum of Mulliken charges =   0.00000

 Dipole moment (field-independent basis, Debye):
    X=           -230.9277    Y=              4.5279    Z=             -9.9760  Tot=            231.1874
 Quadrupole moment (field-independent basis, Debye-Ang):
   XX=          10816.2289   YY=           -724.4974   ZZ=           -695.5314
   XY=            232.7744   XZ=            131.3001   YZ=            -74.6086

 ESP charges:
               1
     1  C   -0.464763
     2  C    0.799788
     3  O   -0.620476
     4  H    0.127297
     5  H    0.144540
     6  H    0.101371
     7  N   -0.771715
     8  C    0.318177
     9  C    0.508843
    10  O   -0.523543
    11  C   -0.371653
    12  C    0.725162
    13  O   -0.633710
    14  O   -0.549783
    15  H    0.360646
    16  H    0.064414
    17  H    0.101142
    18  H    0.129497
    19  N   -0.408194
    20  C    0.006088
    21  C    0.586298
    22  O   -0.539020
    23  C   -0.271962
    24  C    0.121588
    25  C    0.227303
    26  C    0.018783
    27  N   -0.272316
    28  H    0.330412
    29  H    0.093680
    30  H    0.093862
    31  H    0.060301
    32  H   -0.011862
    33  H   -0.020988
    34  H   -0.039421
    35  H   -0.121104
    36  H    0.010291
    37  H    0.086042
    38  H    0.269747
    39  H    0.281752
    40  H    0.307577
    41  N   -0.350635
    42  C   -0.116929
    43  C    0.573451
    44  O   -0.568763
    45  C   -0.093169
    46  C    0.658166
    47  O   -0.547453
    48  O   -0.545903
    49  H    0.190171
    50  H    0.121250
    51  H    0.040083
    52  H    0.059648
    53  N   -0.285817
    54  C   -0.104536
    55  C    0.525022
    56  O   -0.526804
    57  H    0.222633
    58  H    0.058626
    59  H    0.136421
    60  N   -0.478568
    61  C    0.344649
    62  C    0.485859
    63  O   -0.566066
    64  C   -0.308694
    65  C    0.625933
    66  N   -0.747009
    67  O   -0.539365
    68  H    0.275959
    69  H    0.013541
    70  H    0.059209
    71  H    0.114312
    72  H    0.318365
    73  H    0.365977
    74  N   -0.288923
    75  C   -0.239229
    76  C    0.677015
    77  O   -0.550314
    78  H    0.264005
    79  H    0.123290
    80  H    0.060951
    81  N   -0.635099
    82  C    0.266266
    83  C    0.641533
    84  O   -0.511004
    85  C   -0.219387
    86  C    0.078325
    87  C   -0.172685
    88  C   -0.111986
    89  C   -0.259959
    90  C   -0.318650
    91  C    0.377480
    92  O   -0.603670
    93  H    0.347824
    94  H    0.006306
    95  H    0.059241
    96  H    0.084855
    97  H    0.159913
    98  H    0.133618
    99  H    0.178430
   100  H    0.142544
   101  H    0.416208
   102  N   -0.488892
   103  C   -0.363926
   104  C    0.563282
   105  O   -0.500451
   106  C    0.373851
   107  C    0.200228
   108  C   -0.391354
   109  C   -0.321589
   110  H    0.247036
   111  H    0.154991
   112  H   -0.032565
   113  H   -0.056510
   114  H   -0.004492
   115  H    0.067086
   116  H    0.089852
   117  H    0.111103
   118  H    0.085551
   119  H    0.058293
   120  H    0.078900
   121  N   -0.223223
   122  C    0.042169
   123  C    0.432231
   124  O   -0.546026
   125  C    0.147602
   126  O   -0.621375
   127  H    0.194448
   128  H    0.067592
   129  H    0.060653
   130  H    0.025992
   131  H    0.409816
   132  N   -0.472472
   133  C    0.366027
   134  C    0.433572
   135  O   -0.478046
   136  C   -0.396568
   137  H    0.290078
   138  H   -0.009390
   139  H    0.099862
   140  H    0.115737
   141  H    0.168725
   142  N   -0.510473
   143  C    0.386745
   144  C    0.347158
   145  O   -0.509435
   146  C   -0.337082
   147  H    0.238186
   148  H    0.009135
   149  H    0.099366
   150  H    0.100474
   151  H    0.062947
   152  N   -0.089600
   153  C   -0.329646
   154  C    0.604084
   155  O   -0.533393
   156  C    0.065026
   157  C   -0.351581
   158  C    0.868764
   159  O   -0.631743
   160  O   -0.726756
   161  H    0.077236
   162  H    0.188677
   163  H   -0.000779
   164  H    0.126277
   165  H    0.102850
   166  H    0.073395
   167  N   -0.268083
   168  C   -0.187118
   169  H    0.104960
   170  H    0.083944
   171  H    0.099062
   172  H    0.156270
   173  Ca   1.896944
   174  O   -0.831014
   175  H    0.363809
   176  H    0.365535
   177  O   -0.787484
   178  O   -0.799175
   179  H    0.360278
   180  H    0.359437
   181  H    0.331573
   182  H    0.354482
   183  O   -0.872924
   184  H    0.357936
   185  H    0.382182
   186  O   -0.944142
   187  H    0.417809
   188  H    0.391647
   189  O   -0.840383
   190  H    0.349592
   191  H    0.396552
   192  O   -0.885988
   193  H    0.362453
   194  H    0.402413
   195  O   -0.768875
   196  H    0.287740
   197  H    0.386418
   198  O   -0.884856
   199  H    0.402437
   200  H    0.378388
 Sum of ESP charges =  -0.00000

 Normal termination of Gaussian 16 at Sun Nov 29 16:02:30 2020.
