 Gaussian 09, Revision D.01,
 Gaussian 09:  ES64L-G09RevD.01 24-Apr-2013

 ----------------------------------------------------------------------
 #maxdisk=50GB #B3LYP/SVP Density=Current scf=(tight) #IOP(5/87=12)Pop=
 (MK,readradii) iop(6/33=2) iop(6/42=6)
 ----------------------------------------------------------------------

 ------------
 SOL molecule
 ------------
 Symbolic Z-matrix:
 Charge =  0 Multiplicity = 1

                         Standard orientation:
 ---------------------------------------------------------------------
 Center     Atomic      Atomic             Coordinates (Angstroms)
 Number     Number       Type             X           Y           Z
 ---------------------------------------------------------------------
      1          6           0        2.472673    1.318730    5.568162
      2          6           0        1.876859    1.437942    4.168200
      3          8           0        2.606667    1.247220    3.188197
      4          1           0        1.839776    1.850733    6.278131
      5          1           0        2.530832    0.267256    5.850319
      6          1           0        3.471832    1.753642    5.576250
      7          7           0        0.592267    1.703421    3.923569
      8          6           0        0.004681    1.968434    2.625951
      9          6           0        0.403049    3.366662    2.166319
     10          8           0        0.044310    4.356886    2.813899
     11          6           0       -1.503894    1.785273    2.792238
     12          6           0       -2.253901    1.759238    1.467960
     13          8           0       -3.498778    1.607894    1.552086
     14          8           0       -1.682414    2.066884    0.400413
     15          1           0        0.059267    1.850957    4.772418
     16          1           0        0.378542    1.268448    1.891004
     17          1           0       -1.952707    2.620088    3.310844
     18          1           0       -1.715759    0.812972    3.253481
     19          7           0        1.137899    3.521654    1.068606
     20          6           0        1.767015    4.766759    0.661020
     21          6           0        0.778220    5.587184   -0.163472
     22          8           0        0.855102    6.810570   -0.232878
     23          6           0        3.130074    4.474642    0.043251
     24          6           0        4.006391    5.714297    0.143367
     25          6           0        5.365905    5.389440   -0.470467
     26          6           0        6.182387    6.658698   -0.711589
     27          7           0        7.416444    6.268146   -1.400555
     28          1           0        1.447218    2.721449    0.534384
     29          1           0        2.037749    5.389489    1.511849
     30          1           0        2.921353    4.288276   -1.009177
     31          1           0        3.512983    3.629089    0.621021
     32          1           0        4.230172    5.961731    1.183799
     33          1           0        3.589291    6.563594   -0.383247
     34          1           0        5.116224    4.917744   -1.417970
     35          1           0        5.938133    4.700737    0.159805
     36          1           0        6.483610    7.077262    0.246884
     37          1           0        5.540230    7.352135   -1.263838
     38          1           0        7.982109    5.750806   -0.748112
     39          1           0        7.291731    5.730104   -2.253818
     40          1           0        7.942534    7.101781   -1.639685
     41          7           0       -0.195459    4.952501   -0.832298
     42          6           0       -1.182785    5.566070   -1.699316
     43          6           0       -2.563678    5.568023   -1.072236
     44          8           0       -3.387899    6.381794   -1.498895
     45          6           0       -1.077197    4.740064   -2.987479
     46          6           0       -1.253606    3.240658   -2.839290
     47          8           0       -0.290941    2.457982   -2.639051
     48          8           0       -2.402280    2.775027   -2.742153
     49          1           0       -0.224779    3.947887   -0.856579
     50          1           0       -0.968064    6.625633   -1.787762
     51          1           0       -0.115069    5.026407   -3.422930
     52          1           0       -1.883639    5.155781   -3.584247
     53          7           0       -2.873233    4.641055   -0.169403
     54          6           0       -3.920433    4.799353    0.813914
     55          6           0       -5.262719    4.357249    0.220862
     56          8           0       -6.154385    5.193853    0.075858
     57          1           0       -2.202464    3.920272    0.079476
     58          1           0       -3.882438    5.833075    1.138990
     59          1           0       -3.789611    4.140355    1.674791
     60          7           0       -5.316484    3.085008   -0.146171
     61          6           0       -6.394970    2.405719   -0.848549
     62          6           0       -7.023886    1.333191    0.029375
     63          8           0       -8.245435    1.241985   -0.051239
     64          6           0       -5.995777    2.083719   -2.278395
     65          6           0       -4.948145    0.981476   -2.347892
     66          7           0       -4.913212    0.253850   -3.465676
     67          8           0       -4.235686    0.604001   -1.416005
     68          1           0       -4.502971    2.502801    0.012042
     69          1           0       -7.119986    3.223730   -0.845626
     70          1           0       -5.720377    2.975304   -2.845696
     71          1           0       -6.909740    1.707997   -2.721006
     72          1           0       -5.386628    0.645661   -4.266215
     73          1           0       -4.246178   -0.484301   -3.593340
     74          7           0       -6.252021    0.771709    0.957740
     75          6           0       -6.475194   -0.263854    1.949709
     76          6           0       -5.869973   -1.624930    1.666019
     77          8           0       -6.419182   -2.661244    2.053090
     78          1           0       -5.375493    1.265847    1.055857
     79          1           0       -7.513067   -0.343379    2.284217
     80          1           0       -5.981045   -0.029506    2.896174
     81          7           0       -4.713962   -1.634623    1.000627
     82          6           0       -3.863283   -2.781016    0.767542
     83          6           0       -2.437095   -2.321677    0.995131
     84          8           0       -2.045238   -1.313843    0.407238
     85          6           0       -4.072781   -3.418024   -0.604293
     86          6           0       -5.095059   -4.513195   -0.777347
     87          6           0       -4.931228   -5.756523   -0.148782
     88          6           0       -6.235873   -4.262885   -1.552259
     89          6           0       -5.899859   -6.748376   -0.328727
     90          6           0       -7.262851   -5.200020   -1.685284
     91          6           0       -7.079603   -6.441091   -1.045861
     92          8           0       -8.077179   -7.369956   -1.058191
     93          1           0       -4.306333   -0.739713    0.757987
     94          1           0       -4.068161   -3.562763    1.499045
     95          1           0       -3.133950   -3.877943   -0.916656
     96          1           0       -4.331811   -2.677916   -1.363268
     97          1           0       -4.088654   -5.979701    0.481505
     98          1           0       -6.290889   -3.330000   -2.099067
     99          1           0       -5.857524   -7.706762    0.172376
    100          1           0       -8.179321   -5.115230   -2.237546
    101          1           0       -8.835251   -6.970950   -1.470891
    102          7           0       -1.592397   -3.010945    1.764543
    103          6           0       -0.152939   -2.914602    1.703067
    104          6           0        0.372626   -3.882905    0.651273
    105          8           0       -0.128162   -5.002313    0.517719
    106          6           0        0.442414   -3.249001    3.065687
    107          6           0       -0.334625   -2.709714    4.260333
    108          6           0        1.836727   -2.628080    3.058808
    109          6           0        0.124775   -3.372226    5.565871
    110          1           0       -1.926916   -3.902990    2.096887
    111          1           0        0.215743   -1.943154    1.376017
    112          1           0        0.539924   -4.333288    3.153505
    113          1           0       -1.377724   -2.975651    4.081107
    114          1           0       -0.213359   -1.626599    4.232810
    115          1           0        2.449452   -3.254337    2.415557
    116          1           0        1.925495   -1.558739    2.862009
    117          1           0        2.310059   -2.770451    4.028698
    118          1           0        1.153715   -3.715861    5.666858
    119          1           0       -0.104836   -2.779644    6.452001
    120          1           0       -0.420856   -4.315016    5.641590
    121          7           0        1.395732   -3.509521   -0.123155
    122          6           0        2.230215   -4.301929   -1.008722
    123          6           0        3.723288   -4.163051   -0.769672
    124          8           0        4.138963   -3.450714    0.144106
    125          6           0        1.784035   -4.043632   -2.438095
    126          8           0        2.280872   -2.843072   -3.005111
    127          1           0        1.696519   -2.542476   -0.116033
    128          1           0        1.945948   -5.351179   -0.871727
    129          1           0        0.697661   -4.005832   -2.492537
    130          1           0        2.067476   -4.943733   -2.988168
    131          1           0        1.758776   -2.159242   -2.563533
    132          7           0        4.599222   -4.889532   -1.475976
    133          6           0        5.981435   -5.114396   -1.110429
    134          6           0        6.885752   -3.889493   -1.158631
    135          8           0        7.675523   -3.743690   -0.225089
    136          6           0        6.616858   -6.251333   -1.890757
    137          1           0        4.133160   -5.487980   -2.148319
    138          1           0        6.045401   -5.284546   -0.028968
    139          1           0        6.404203   -6.268505   -2.962104
    140          1           0        7.672148   -6.091935   -1.646718
    141          1           0        6.382003   -7.175484   -1.379986
    142          7           0        6.766313   -3.101554   -2.232450
    143          6           0        7.418562   -1.817262   -2.394823
    144          6           0        7.105689   -0.734679   -1.369530
    145          8           0        7.919696    0.065128   -0.919197
    146          6           0        7.133504   -1.308406   -3.805216
    147          1           0        6.119087   -3.525196   -2.884237
    148          1           0        8.495914   -1.928874   -2.327326
    149          1           0        6.144603   -0.858281   -3.797315
    150          1           0        7.837768   -0.528621   -4.103118
    151          1           0        7.200751   -2.106794   -4.542410
    152          7           0        5.884183   -0.820990   -0.824944
    153          6           0        5.371957    0.057509    0.203241
    154          6           0        5.853768   -0.328240    1.595381
    155          8           0        6.275436    0.474063    2.424481
    156          6           0        3.847981    0.056435    0.193439
    157          6           0        3.215550    0.246532   -1.183403
    158          6           0        1.696065    0.229962   -1.216436
    159          8           0        1.147878   -0.652676   -1.913100
    160          8           0        0.963619    0.981810   -0.550967
    161          1           0        5.298240   -1.605458   -1.069239
    162          1           0        5.692277    1.089689    0.032948
    163          1           0        3.558365    0.925965    0.788538
    164          1           0        3.378382   -0.774570    0.708616
    165          1           0        3.495782   -0.578021   -1.844751
    166          1           0        3.565140    1.136061   -1.726381
    167          7           0        5.710634   -1.614765    1.943757
    168          6           0        6.364141   -2.132439    3.129945
    169          1           0        7.441067   -1.989505    3.043065
    170          1           0        5.997952   -1.600492    4.008593
    171          1           0        6.146143   -3.195683    3.230544
    172          1           0        5.143013   -2.228563    1.382545
    173         20           0       -1.376468    0.519850   -1.547504
    174          8           0       -1.286870   -1.939967   -2.670123
    175          1           0       -1.861978   -2.705171   -2.744384
    176          1           0       -0.566706   -2.128323   -3.283381
 ---------------------------------------------------------------------

 SCF Done:  E(RB3LYP) =  -5333.58225429     A.U. after   17 cycles

 The electronic state is 1-A.
 Alpha  occ. eigenvalues -- -145.35944 -19.19073 -19.15521 -19.14203 -19.13234
 Alpha  occ. eigenvalues --  -19.12323 -19.11293 -19.11065 -19.10550 -19.09867
 Alpha  occ. eigenvalues --  -19.08064 -19.07283 -19.06799 -19.06604 -19.06491
 Alpha  occ. eigenvalues --  -19.06178 -19.06006 -19.05786 -19.05069 -19.04511
 Alpha  occ. eigenvalues --  -19.04232 -19.03790 -19.03334 -19.02861 -15.41710
 Alpha  occ. eigenvalues --  -14.58904 -14.39845 -14.38169 -14.37466 -14.37179
 Alpha  occ. eigenvalues --  -14.35758 -14.34982 -14.33730 -14.33013 -14.31848
 Alpha  occ. eigenvalues --  -14.31744 -14.31012 -14.30964 -14.28782 -14.28717
 Alpha  occ. eigenvalues --  -12.55318 -12.55286 -12.55268 -10.34937 -10.32756
 Alpha  occ. eigenvalues --  -10.30527 -10.29835 -10.29759 -10.29238 -10.28523
 Alpha  occ. eigenvalues --  -10.26675 -10.26654 -10.26448 -10.26173 -10.26038
 Alpha  occ. eigenvalues --  -10.25756 -10.25552 -10.25148 -10.25087 -10.25025
 Alpha  occ. eigenvalues --  -10.24829 -10.24677 -10.24308 -10.24212 -10.24152
 Alpha  occ. eigenvalues --  -10.23768 -10.23442 -10.22792 -10.22321 -10.22200
 Alpha  occ. eigenvalues --  -10.22039 -10.21762 -10.21389 -10.21183 -10.20734
 Alpha  occ. eigenvalues --  -10.20367 -10.19998 -10.19791 -10.19669 -10.19517
 Alpha  occ. eigenvalues --  -10.19006 -10.18899 -10.18839 -10.18738 -10.18637
 Alpha  occ. eigenvalues --  -10.18548 -10.18542 -10.18478 -10.18351 -10.18082
 Alpha  occ. eigenvalues --  -10.18073 -10.18005 -10.17906 -10.17065 -10.16507
 Alpha  occ. eigenvalues --  -10.16069 -10.15242  -1.78630  -1.14162  -1.07389
 Alpha  occ. eigenvalues --   -1.06370  -1.06214  -1.06163  -1.05409  -1.04677
 Alpha  occ. eigenvalues --   -1.04499  -1.04166  -1.03874  -1.03329  -1.02967
 Alpha  occ. eigenvalues --   -1.02682  -1.01667  -1.00500  -0.99853  -0.99677
 Alpha  occ. eigenvalues --   -0.99508  -0.99401  -0.99350  -0.98555  -0.97997
 Alpha  occ. eigenvalues --   -0.96383  -0.96344  -0.95325  -0.94791  -0.94393
 Alpha  occ. eigenvalues --   -0.93553  -0.92133  -0.91820  -0.90558  -0.90336
 Alpha  occ. eigenvalues --   -0.89987  -0.89837  -0.89440  -0.88747  -0.88334
 Alpha  occ. eigenvalues --   -0.88306  -0.87930  -0.87921  -0.86461  -0.85296
 Alpha  occ. eigenvalues --   -0.84370  -0.82917  -0.82253  -0.81438  -0.79935
 Alpha  occ. eigenvalues --   -0.78623  -0.78433  -0.77907  -0.76439  -0.75727
 Alpha  occ. eigenvalues --   -0.75163  -0.74999  -0.73931  -0.73840  -0.73456
 Alpha  occ. eigenvalues --   -0.73198  -0.72207  -0.72127  -0.71302  -0.70877
 Alpha  occ. eigenvalues --   -0.69815  -0.69432  -0.67933  -0.67893  -0.67141
 Alpha  occ. eigenvalues --   -0.66866  -0.66413  -0.65487  -0.64655  -0.64406
 Alpha  occ. eigenvalues --   -0.63847  -0.63445  -0.63148  -0.62041  -0.61935
 Alpha  occ. eigenvalues --   -0.61713  -0.60803  -0.60585  -0.60386  -0.60027
 Alpha  occ. eigenvalues --   -0.59340  -0.58850  -0.58367  -0.58110  -0.57816
 Alpha  occ. eigenvalues --   -0.57799  -0.57638  -0.57052  -0.56664  -0.55924
 Alpha  occ. eigenvalues --   -0.55867  -0.55757  -0.55418  -0.55368  -0.54988
 Alpha  occ. eigenvalues --   -0.54560  -0.53856  -0.53733  -0.53320  -0.53118
 Alpha  occ. eigenvalues --   -0.52990  -0.52481  -0.52404  -0.51430  -0.51294
 Alpha  occ. eigenvalues --   -0.51241  -0.51026  -0.50408  -0.49930  -0.49841
 Alpha  occ. eigenvalues --   -0.49525  -0.49097  -0.48865  -0.48688  -0.48565
 Alpha  occ. eigenvalues --   -0.48131  -0.48123  -0.47762  -0.47677  -0.47537
 Alpha  occ. eigenvalues --   -0.47436  -0.47269  -0.46970  -0.46637  -0.46443
 Alpha  occ. eigenvalues --   -0.46084  -0.45989  -0.45700  -0.45652  -0.45273
 Alpha  occ. eigenvalues --   -0.44978  -0.44902  -0.44676  -0.44439  -0.44407
 Alpha  occ. eigenvalues --   -0.44229  -0.44127  -0.44021  -0.43986  -0.43682
 Alpha  occ. eigenvalues --   -0.43653  -0.43273  -0.43193  -0.43104  -0.42739
 Alpha  occ. eigenvalues --   -0.42638  -0.42356  -0.42327  -0.42246  -0.42062
 Alpha  occ. eigenvalues --   -0.41949  -0.41738  -0.41579  -0.41482  -0.41298
 Alpha  occ. eigenvalues --   -0.41246  -0.41160  -0.41044  -0.40808  -0.40748
 Alpha  occ. eigenvalues --   -0.40632  -0.40414  -0.40366  -0.40173  -0.40129
 Alpha  occ. eigenvalues --   -0.39911  -0.39792  -0.39606  -0.39601  -0.39442
 Alpha  occ. eigenvalues --   -0.39285  -0.39104  -0.38978  -0.38951  -0.38675
 Alpha  occ. eigenvalues --   -0.38566  -0.38424  -0.38154  -0.37857  -0.37795
 Alpha  occ. eigenvalues --   -0.37757  -0.37657  -0.37604  -0.37495  -0.37383
 Alpha  occ. eigenvalues --   -0.36960  -0.36748  -0.36537  -0.36519  -0.36352
 Alpha  occ. eigenvalues --   -0.36304  -0.36245  -0.36084  -0.35909  -0.35743
 Alpha  occ. eigenvalues --   -0.35522  -0.35152  -0.35036  -0.34737  -0.34710
 Alpha  occ. eigenvalues --   -0.34601  -0.34217  -0.34196  -0.33773  -0.33615
 Alpha  occ. eigenvalues --   -0.33548  -0.33468  -0.33336  -0.33099  -0.32928
 Alpha  occ. eigenvalues --   -0.32657  -0.32427  -0.32321  -0.32221  -0.32051
 Alpha  occ. eigenvalues --   -0.31817  -0.31738  -0.31060  -0.30382  -0.30083
 Alpha  occ. eigenvalues --   -0.29316  -0.29248  -0.28978  -0.28319  -0.28155
 Alpha  occ. eigenvalues --   -0.27216  -0.27131  -0.26571  -0.26494  -0.26423
 Alpha  occ. eigenvalues --   -0.26258  -0.25389  -0.25343  -0.25279  -0.25259
 Alpha  occ. eigenvalues --   -0.24270  -0.24200  -0.24031  -0.23780  -0.23488
 Alpha  occ. eigenvalues --   -0.23300  -0.23137  -0.22932  -0.22618  -0.22549
 Alpha  occ. eigenvalues --   -0.22301  -0.21819  -0.21713  -0.21571  -0.21243
 Alpha  occ. eigenvalues --   -0.20972  -0.20889  -0.20586  -0.20472  -0.19410
 Alpha  occ. eigenvalues --   -0.18902  -0.18515  -0.17311
 Alpha virt. eigenvalues --   -0.10689  -0.04763  -0.04676  -0.02856  -0.01999
 Alpha virt. eigenvalues --   -0.01284  -0.01247  -0.00893  -0.00459   0.00186
 Alpha virt. eigenvalues --    0.00681   0.00981   0.01168   0.01517   0.01892

 Mulliken charges:
               1
     1  C    0.081427
     2  C    0.007718
     3  O   -0.316819
     4  H   -0.000386
     5  H    0.037308
     6  H    0.044502
     7  N   -0.115701
     8  C    0.158517
     9  C    0.061754
    10  O   -0.301617
    11  C    0.068895
    12  C    0.154823
    13  O   -0.398181
    14  O   -0.468155
    15  H    0.112349
    16  H    0.000215
    17  H    0.025717
    18  H    0.011553
    19  N   -0.125952
    20  C    0.123729
    21  C    0.060856
    22  O   -0.295283
    23  C    0.023704
    24  C    0.006697
    25  C   -0.076371
    26  C    0.033631
    27  N    0.087986
    28  H    0.146168
    29  H   -0.000751
    30  H    0.017831
    31  H    0.049168
    32  H    0.015841
    33  H    0.025758
    34  H    0.018200
    35  H    0.043690
    36  H    0.071085
    37  H    0.089258
    38  H    0.196467
    39  H    0.197277
    40  H    0.187504
    41  N   -0.153070
    42  C    0.069245
    43  C    0.075852
    44  O   -0.284619
    45  C    0.186201
    46  C    0.060892
    47  O   -0.458002
    48  O   -0.389748
    49  H    0.142810
    50  H    0.014483
    51  H   -0.022724
    52  H    0.000447
    53  N   -0.159155
    54  C    0.215608
    55  C    0.034087
    56  O   -0.277544
    57  H    0.142908
    58  H    0.001507
    59  H    0.021242
    60  N   -0.195852
    61  C    0.107500
    62  C    0.047339
    63  O   -0.273921
    64  C    0.094308
    65  C    0.088685
    66  N   -0.038771
    67  O   -0.339698
    68  H    0.154936
    69  H    0.016141
    70  H    0.066965
    71  H    0.019432
    72  H    0.123455
    73  H    0.107762
    74  N   -0.147581
    75  C    0.225327
    76  C    0.012739
    77  O   -0.286234
    78  H    0.155932
    79  H    0.024131
    80  H    0.024741
    81  N   -0.153327
    82  C    0.175962
    83  C    0.091499
    84  O   -0.353109
    85  C    0.145228
    86  C   -0.018078
    87  C   -0.000060
    88  C    0.012264
    89  C   -0.009539
    90  C   -0.005353
    91  C    0.117084
    92  O   -0.184770
    93  H    0.149648
    94  H   -0.009227
    95  H   -0.007717
    96  H   -0.023262
    97  H   -0.034337
    98  H   -0.031908
    99  H   -0.023509
   100  H   -0.049735
   101  H    0.164412
   102  N   -0.086659
   103  C    0.156497
   104  C    0.052732
   105  O   -0.297637
   106  C   -0.126453
   107  C    0.071794
   108  C    0.018873
   109  C    0.025686
   110  H    0.133429
   111  H    0.013048
   112  H   -0.015138
   113  H   -0.012629
   114  H    0.004065
   115  H    0.002828
   116  H    0.057521
   117  H   -0.012274
   118  H    0.008049
   119  H    0.014368
   120  H   -0.000640
   121  N   -0.121904
   122  C    0.058874
   123  C    0.119072
   124  O   -0.281920
   125  C    0.246898
   126  O   -0.340495
   127  H    0.138139
   128  H    0.027120
   129  H   -0.033622
   130  H   -0.019242
   131  H    0.169518
   132  N   -0.110167
   133  C    0.046319
   134  C    0.023156
   135  O   -0.254808
   136  C    0.064822
   137  H    0.116217
   138  H    0.027190
   139  H    0.025979
   140  H    0.038071
   141  H    0.029730
   142  N   -0.128295
   143  C    0.116765
   144  C    0.061573
   145  O   -0.268475
   146  C    0.031302
   147  H    0.116769
   148  H    0.016864
   149  H    0.021857
   150  H    0.022220
   151  H    0.018459
   152  N   -0.151143
   153  C    0.141155
   154  C    0.092876
   155  O   -0.275519
   156  C   -0.012768
   157  C    0.078312
   158  C    0.158830
   159  O   -0.454801
   160  O   -0.379911
   161  H    0.135938
   162  H   -0.033881
   163  H    0.041799
   164  H   -0.006239
   165  H   -0.036730
   166  H   -0.006939
   167  N   -0.190266
   168  C    0.159913
   169  H    0.022003
   170  H    0.016903
   171  H    0.000431
   172  H    0.124555
   173  Ca   1.285649
   174  O   -0.289187
   175  H    0.177839
   176  H    0.195399
 Sum of Mulliken charges =   0.00000

 Dipole moment (field-independent basis, Debye):
    X=             34.8508    Y=             -2.7625    Z=            -13.3452  Tot=             37.4207
 Quadrupole moment (field-independent basis, Debye-Ang):
   XX=           -521.2457   YY=           -500.0919   ZZ=           -504.8098
   XY=            216.2962   XZ=            -42.4873   YZ=             -2.3296

 ESP charges:
               1
     1  C   -0.424417
     2  C    0.795441
     3  O   -0.653949
     4  H    0.079506
     5  H    0.121439
     6  H    0.142772
     7  N   -0.768810
     8  C    0.543723
     9  C    0.432272
    10  O   -0.562770
    11  C   -0.549665
    12  C    1.080453
    13  O   -0.701910
    14  O   -0.868509
    15  H    0.351502
    16  H   -0.022653
    17  H    0.121845
    18  H    0.104558
    19  N   -0.213854
    20  C   -0.046702
    21  C    0.519214
    22  O   -0.574633
    23  C    0.068311
    24  C   -0.121357
    25  C    0.122243
    26  C    0.059181
    27  N   -0.418352
    28  H    0.177807
    29  H    0.069289
    30  H    0.033880
    31  H    0.039160
    32  H    0.044632
    33  H    0.041966
    34  H   -0.021271
    35  H    0.001864
    36  H    0.062850
    37  H    0.088156
    38  H    0.348104
    39  H    0.340414
    40  H    0.333830
    41  N   -0.368508
    42  C    0.240516
    43  C    0.368630
    44  O   -0.526134
    45  C   -0.482782
    46  C    0.866830
    47  O   -0.795360
    48  O   -0.768581
    49  H    0.243518
    50  H    0.055315
    51  H    0.106205
    52  H    0.124543
    53  N    0.071599
    54  C   -0.423128
    55  C    0.689438
    56  O   -0.565094
    57  H    0.066284
    58  H    0.143164
    59  H    0.148477
    60  N   -0.520392
    61  C    0.269720
    62  C    0.414355
    63  O   -0.545185
    64  C   -0.364380
    65  C    0.713312
    66  N   -0.745256
    67  O   -0.583375
    68  H    0.255543
    69  H    0.043692
    70  H    0.173723
    71  H    0.078360
    72  H    0.338766
    73  H    0.346041
    74  N   -0.125731
    75  C   -0.091221
    76  C    0.512906
    77  O   -0.538922
    78  H    0.113798
    79  H    0.085754
    80  H    0.082293
    81  N   -0.398170
    82  C    0.304016
    83  C    0.613980
    84  O   -0.623427
    85  C    0.110473
    86  C   -0.226198
    87  C   -0.004700
    88  C    0.062575
    89  C   -0.343883
    90  C   -0.387499
    91  C    0.445788
    92  O   -0.561899
    93  H    0.142454
    94  H   -0.000299
    95  H   -0.016619
    96  H   -0.008122
    97  H    0.096245
    98  H    0.084997
    99  H    0.183447
   100  H    0.151734
   101  H    0.411355
   102  N   -0.695588
   103  C    0.150197
   104  C    0.583344
   105  O   -0.574499
   106  C    0.392951
   107  C    0.043055
   108  C   -0.305995
   109  C   -0.276727
   110  H    0.311099
   111  H    0.049145
   112  H   -0.077439
   113  H   -0.001985
   114  H   -0.011972
   115  H    0.029312
   116  H    0.082123
   117  H    0.060436
   118  H    0.066373
   119  H    0.072865
   120  H    0.061981
   121  N   -0.460313
   122  C    0.068494
   123  C    0.528089
   124  O   -0.421908
   125  C    0.279699
   126  O   -0.637754
   127  H    0.248078
   128  H    0.050618
   129  H   -0.015191
   130  H   -0.020590
   131  H    0.391835
   132  N   -0.657301
   133  C    0.413353
   134  C    0.417075
   135  O   -0.511160
   136  C   -0.497779
   137  H    0.342581
   138  H    0.017725
   139  H    0.136720
   140  H    0.141610
   141  H    0.135703
   142  N   -0.447162
   143  C    0.182449
   144  C    0.378708
   145  O   -0.535884
   146  C   -0.287796
   147  H    0.282957
   148  H    0.066643
   149  H    0.067931
   150  H    0.089651
   151  H    0.087794
   152  N   -0.070961
   153  C   -0.032519
   154  C    0.538509
   155  O   -0.545466
   156  C   -0.220123
   157  C   -0.289091
   158  C    0.947446
   159  O   -0.761836
   160  O   -0.758529
   161  H    0.118778
   162  H    0.033834
   163  H    0.158700
   164  H    0.037505
   165  H    0.063894
   166  H    0.048954
   167  N   -0.170993
   168  C   -0.283301
   169  H    0.120370
   170  H    0.103702
   171  H    0.101924
   172  H    0.182622
   173  Ca   1.565599
   174  O   -0.851887
   175  H    0.415208
   176  H    0.433566
 Sum of ESP charges =   0.00000

 Normal termination of Gaussian 09 at Mon Sep 16 17:05:08 2019.
