 Gaussian 09, Revision D.01,
 Gaussian 09:  ES64L-G09RevD.01 24-Apr-2013

 ----------------------------------------------------------------------
 #maxdisk=50GB #B3LYP/SVP Density=Current scf=(tight) #IOP(5/87=12)Pop=
 (MK,readradii) iop(6/33=2) iop(6/42=6)
 ----------------------------------------------------------------------

 ------------
 SOL molecule
 ------------
 Symbolic Z-matrix:
 Charge =  0 Multiplicity = 1

                         Standard orientation:
 ---------------------------------------------------------------------
 Center     Atomic      Atomic             Coordinates (Angstroms)
 Number     Number       Type             X           Y           Z
 ---------------------------------------------------------------------
      1          6           0        3.120645    1.787337    4.525662
      2          6           0        2.148702    1.960654    3.367263
      3          8           0        2.556016    2.251420    2.247017
      4          1           0        4.067303    1.397705    4.149732
      5          1           0        3.289903    2.750977    5.006106
      6          1           0        2.702475    1.088476    5.249698
      7          7           0        0.877480    1.681107    3.639194
      8          6           0       -0.090737    1.863635    2.574610
      9          6           0       -0.158488    3.328476    2.155265
     10          8           0       -0.698971    4.174229    2.861155
     11          6           0       -1.482109    1.370830    2.971384
     12          6           0       -2.387102    1.411606    1.745527
     13          8           0       -1.947172    1.175302    0.602189
     14          8           0       -3.580598    1.693301    1.988045
     15          1           0        0.610872    1.380335    4.562968
     16          1           0        0.127231    1.281833    1.680800
     17          1           0       -1.938539    2.102451    3.642505
     18          1           0       -1.385481    0.358527    3.344083
     19          7           0        0.443377    3.718381    1.030350
     20          6           0        0.759649    5.059202    0.571690
     21          6           0       -0.121191    5.624267   -0.530727
     22          8           0       -0.374835    6.820765   -0.622146
     23          6           0        2.277212    5.220285    0.424188
     24          6           0        2.664967    6.666146    0.098408
     25          6           0        4.169944    6.831936    0.276052
     26          6           0        4.563139    8.255478   -0.104248
     27          7           0        5.976197    8.539817    0.195449
     28          1           0        0.937135    2.947911    0.597131
     29          1           0        0.534372    5.765909    1.371450
     30          1           0        2.685460    4.643694   -0.397745
     31          1           0        2.747695    4.845237    1.334510
     32          1           0        2.199373    7.410874    0.730232
     33          1           0        2.435091    6.801316   -0.955673
     34          1           0        4.492801    6.092162   -0.458249
     35          1           0        4.458942    6.675955    1.317037
     36          1           0        3.918777    9.035318    0.313779
     37          1           0        4.372921    8.440918   -1.158444
     38          1           0        6.241689    9.445510   -0.159844
     39          1           0        6.071971    8.526240    1.199214
     40          1           0        6.590109    7.911143   -0.294837
     41          7           0       -0.599677    4.764353   -1.438856
     42          6           0       -1.781089    5.004272   -2.243720
     43          6           0       -3.101316    4.853972   -1.504998
     44          8           0       -4.169216    5.016787   -2.087218
     45          6           0       -1.815305    4.276274   -3.577904
     46          6           0       -1.542946    2.780487   -3.514336
     47          8           0       -1.873846    2.022885   -4.453296
     48          8           0       -0.962764    2.247419   -2.544890
     49          1           0       -0.245330    3.816505   -1.402499
     50          1           0       -1.841661    6.057960   -2.527047
     51          1           0       -1.069240    4.688711   -4.255608
     52          1           0       -2.726368    4.599998   -4.081955
     53          7           0       -3.120279    4.354584   -0.262439
     54          6           0       -4.259789    4.459905    0.626281
     55          6           0       -5.421380    3.497894    0.377806
     56          8           0       -6.522682    3.661771    0.910702
     57          1           0       -2.223344    4.043610    0.073571
     58          1           0       -4.653118    5.478295    0.592007
     59          1           0       -3.805061    4.200841    1.586598
     60          7           0       -5.181052    2.482849   -0.451968
     61          6           0       -6.213502    1.577578   -0.925394
     62          6           0       -6.638442    0.480791    0.036991
     63          8           0       -7.505512   -0.325867   -0.297060
     64          6           0       -5.690916    1.128357   -2.288811
     65          6           0       -4.603186    0.061332   -2.302921
     66          7           0       -4.634779   -1.041353   -3.045072
     67          8           0       -3.589312    0.205936   -1.620828
     68          1           0       -4.243614    2.390929   -0.823400
     69          1           0       -7.123561    2.165929   -1.058943
     70          1           0       -5.484784    1.982752   -2.929840
     71          1           0       -6.529246    0.559448   -2.695314
     72          1           0       -5.353530   -1.124418   -3.744927
     73          1           0       -3.732718   -1.482690   -3.143089
     74          7           0       -6.050590    0.324100    1.221802
     75          6           0       -6.362177   -0.778735    2.109928
     76          6           0       -5.446466   -1.984581    2.089632
     77          8           0       -5.553241   -2.974873    2.807212
     78          1           0       -5.259363    0.931548    1.362042
     79          1           0       -7.391070   -1.043767    1.864496
     80          1           0       -6.449054   -0.278305    3.075807
     81          7           0       -4.346417   -1.925222    1.318484
     82          6           0       -3.454584   -3.047087    1.079837
     83          6           0       -1.995902   -2.614389    1.097740
     84          8           0       -1.628861   -1.720108    0.340877
     85          6           0       -3.789952   -3.684721   -0.260854
     86          6           0       -5.190897   -4.201244   -0.488136
     87          6           0       -5.458005   -5.563675   -0.345886
     88          6           0       -6.249075   -3.335305   -0.792288
     89          6           0       -6.771029   -6.041791   -0.420543
     90          6           0       -7.578549   -3.782560   -0.875717
     91          6           0       -7.841901   -5.135698   -0.593827
     92          8           0       -9.100754   -5.599213   -0.821297
     93          1           0       -4.124340   -1.079092    0.823665
     94          1           0       -3.652063   -3.820532    1.829826
     95          1           0       -3.127261   -4.490776   -0.600288
     96          1           0       -3.602857   -2.925005   -1.028269
     97          1           0       -4.763333   -6.386017   -0.255423
     98          1           0       -6.138824   -2.276785   -0.922984
     99          1           0       -7.112938   -7.052800   -0.281048
    100          1           0       -8.333144   -3.060543   -1.138355
    101          1           0       -9.612221   -4.920236   -1.269507
    102          7           0       -1.115984   -3.300915    1.831583
    103          6           0        0.318737   -3.106095    1.775729
    104          6           0        0.817451   -3.971643    0.622554
    105          8           0        0.326505   -5.076679    0.437170
    106          6           0        0.991959   -3.421300    3.109152
    107          6           0        0.740211   -2.267641    4.071802
    108          6           0        2.478168   -3.695048    2.938438
    109          6           0        1.082445   -2.578050    5.529822
    110          1           0       -1.423218   -3.987964    2.498570
    111          1           0        0.556243   -2.102713    1.429009
    112          1           0        0.456516   -4.231050    3.612844
    113          1           0       -0.309048   -2.022998    3.947683
    114          1           0        1.294039   -1.412482    3.670580
    115          1           0        2.620613   -4.689632    2.512396
    116          1           0        2.979927   -2.980402    2.288730
    117          1           0        2.994650   -3.634839    3.891601
    118          1           0        0.690683   -3.545340    5.848212
    119          1           0        2.161751   -2.486403    5.629322
    120          1           0        0.648571   -1.814568    6.168139
    121          7           0        1.742208   -3.380098   -0.136326
    122          6           0        2.522809   -4.049977   -1.152556
    123          6           0        4.002205   -4.090290   -0.762859
    124          8           0        4.392818   -3.304392    0.095270
    125          6           0        2.214821   -3.595436   -2.578121
    126          8           0        2.620941   -2.247170   -2.711710
    127          1           0        1.945903   -2.412479    0.047311
    128          1           0        2.245430   -5.104198   -1.126501
    129          1           0        1.172570   -3.726662   -2.852151
    130          1           0        2.749946   -4.275705   -3.227564
    131          1           0        2.033223   -1.649128   -2.230115
    132          7           0        4.865914   -4.900407   -1.379557
    133          6           0        6.278200   -4.915817   -1.072782
    134          6           0        7.132318   -3.676578   -1.324313
    135          8           0        8.103005   -3.376505   -0.618463
    136          6           0        6.882555   -6.211438   -1.622982
    137          1           0        4.618762   -5.355902   -2.244913
    138          1           0        6.246546   -5.017665    0.007600
    139          1           0        6.172899   -7.022544   -1.789102
    140          1           0        7.411930   -5.952841   -2.538127
    141          1           0        7.670040   -6.435205   -0.911719
    142          7           0        6.739407   -2.919386   -2.346654
    143          6           0        7.315977   -1.674493   -2.798771
    144          6           0        7.136198   -0.581395   -1.750957
    145          8           0        8.012306    0.283293   -1.628686
    146          6           0        6.660538   -1.220067   -4.097538
    147          1           0        6.062578   -3.399300   -2.936725
    148          1           0        8.327132   -1.929883   -3.119773
    149          1           0        5.617523   -0.948067   -4.023131
    150          1           0        7.232633   -0.391286   -4.511819
    151          1           0        6.712649   -2.056497   -4.800937
    152          7           0        6.063594   -0.644467   -0.964545
    153          6           0        5.652636    0.223311    0.123101
    154          6           0        6.261740   -0.250214    1.441572
    155          8           0        6.760238    0.551873    2.234135
    156          6           0        4.131404    0.124639    0.200664
    157          6           0        3.317083    0.794385   -0.897617
    158          6           0        1.846606    0.630453   -0.540653
    159          8           0        1.380281   -0.509049   -0.346293
    160          8           0        1.115509    1.648796   -0.557244
    161          1           0        5.480103   -1.429990   -1.220264
    162          1           0        5.995155    1.247738   -0.027329
    163          1           0        3.793243    0.457332    1.184465
    164          1           0        3.879653   -0.937779    0.263814
    165          1           0        3.558267    0.400946   -1.879063
    166          1           0        3.536578    1.860564   -0.875647
    167          7           0        6.259943   -1.565132    1.675213
    168          6           0        6.952313   -2.238155    2.762671
    169          1           0        8.002578   -1.946594    2.759273
    170          1           0        6.500331   -1.954194    3.713246
    171          1           0        6.874556   -3.317740    2.630648
    172          1           0        5.851247   -2.145473    0.958574
    173         20           0       -0.921834   -0.022212   -1.441079
    174          8           0       -1.165315   -2.410606   -2.501593
    175          1           0       -1.095050   -2.141915   -3.420815
    176          1           0       -1.551784   -3.293389   -2.545599
 ---------------------------------------------------------------------

 SCF Done:  E(RB3LYP) =  -5333.56028608     A.U. after   18 cycles

 The electronic state is 1-A.
 Alpha  occ. eigenvalues -- -145.37533 -19.22250 -19.15794 -19.13978 -19.13793
 Alpha  occ. eigenvalues --  -19.11429 -19.11277 -19.10545 -19.09962 -19.09734
 Alpha  occ. eigenvalues --  -19.08088 -19.07954 -19.07235 -19.06701 -19.06593
 Alpha  occ. eigenvalues --  -19.06006 -19.05703 -19.05054 -19.04631 -19.03486
 Alpha  occ. eigenvalues --  -19.03410 -19.02692 -19.01170 -19.00652 -15.43274
 Alpha  occ. eigenvalues --  -14.58970 -14.39824 -14.37625 -14.36496 -14.36427
 Alpha  occ. eigenvalues --  -14.35513 -14.34487 -14.34082 -14.32365 -14.32304
 Alpha  occ. eigenvalues --  -14.30992 -14.30434 -14.30229 -14.29888 -14.29273
 Alpha  occ. eigenvalues --  -12.56890 -12.56865 -12.56816 -10.34710 -10.32165
 Alpha  occ. eigenvalues --  -10.30153 -10.29562 -10.29529 -10.28123 -10.27386
 Alpha  occ. eigenvalues --  -10.27247 -10.27090 -10.26726 -10.26714 -10.25884
 Alpha  occ. eigenvalues --  -10.25548 -10.25492 -10.25238 -10.25163 -10.24525
 Alpha  occ. eigenvalues --  -10.24299 -10.23710 -10.23116 -10.22642 -10.22575
 Alpha  occ. eigenvalues --  -10.22425 -10.22249 -10.22145 -10.21909 -10.21778
 Alpha  occ. eigenvalues --  -10.21743 -10.21564 -10.21056 -10.20715 -10.20483
 Alpha  occ. eigenvalues --  -10.20300 -10.19758 -10.19680 -10.19300 -10.19147
 Alpha  occ. eigenvalues --  -10.19077 -10.18919 -10.18410 -10.17870 -10.17841
 Alpha  occ. eigenvalues --  -10.17798 -10.17460 -10.17426 -10.17379 -10.17214
 Alpha  occ. eigenvalues --  -10.17214 -10.17077 -10.16568 -10.16408 -10.16299
 Alpha  occ. eigenvalues --  -10.14753 -10.13914  -1.80163  -1.14282  -1.08597
 Alpha  occ. eigenvalues --   -1.07795  -1.07513  -1.07286  -1.06881  -1.04469
 Alpha  occ. eigenvalues --   -1.04079  -1.03987  -1.03758  -1.03333  -1.02945
 Alpha  occ. eigenvalues --   -1.02683  -1.01340  -1.00852  -0.99888  -0.99746
 Alpha  occ. eigenvalues --   -0.99161  -0.99025  -0.98293  -0.98050  -0.97350
 Alpha  occ. eigenvalues --   -0.96574  -0.96513  -0.96106  -0.94264  -0.93313
 Alpha  occ. eigenvalues --   -0.93059  -0.92834  -0.91372  -0.90954  -0.90480
 Alpha  occ. eigenvalues --   -0.89212  -0.88887  -0.88565  -0.88417  -0.87714
 Alpha  occ. eigenvalues --   -0.87327  -0.86907  -0.86701  -0.85955  -0.85687
 Alpha  occ. eigenvalues --   -0.82684  -0.82300  -0.81620  -0.80828  -0.79422
 Alpha  occ. eigenvalues --   -0.78105  -0.77520  -0.77073  -0.76115  -0.75911
 Alpha  occ. eigenvalues --   -0.74684  -0.74555  -0.74088  -0.73786  -0.72204
 Alpha  occ. eigenvalues --   -0.72171  -0.71982  -0.71962  -0.70586  -0.70521
 Alpha  occ. eigenvalues --   -0.69600  -0.69236  -0.68298  -0.68128  -0.67690
 Alpha  occ. eigenvalues --   -0.66841  -0.65875  -0.65052  -0.64728  -0.64203
 Alpha  occ. eigenvalues --   -0.63179  -0.62951  -0.62221  -0.61449  -0.61408
 Alpha  occ. eigenvalues --   -0.61113  -0.60796  -0.60173  -0.60124  -0.59751
 Alpha  occ. eigenvalues --   -0.59357  -0.59053  -0.58178  -0.58017  -0.57432
 Alpha  occ. eigenvalues --   -0.57047  -0.56978  -0.56608  -0.56170  -0.55902
 Alpha  occ. eigenvalues --   -0.55675  -0.55388  -0.55173  -0.54769  -0.54523
 Alpha  occ. eigenvalues --   -0.54304  -0.53677  -0.53470  -0.52913  -0.52868
 Alpha  occ. eigenvalues --   -0.52717  -0.52295  -0.51923  -0.51314  -0.50823
 Alpha  occ. eigenvalues --   -0.50739  -0.50564  -0.50246  -0.49519  -0.49189
 Alpha  occ. eigenvalues --   -0.49155  -0.49044  -0.48969  -0.48694  -0.48457
 Alpha  occ. eigenvalues --   -0.48231  -0.47765  -0.47680  -0.47488  -0.47413
 Alpha  occ. eigenvalues --   -0.47202  -0.47075  -0.46864  -0.46417  -0.46321
 Alpha  occ. eigenvalues --   -0.46199  -0.46013  -0.45723  -0.45308  -0.45168
 Alpha  occ. eigenvalues --   -0.45045  -0.44912  -0.44583  -0.44441  -0.44149
 Alpha  occ. eigenvalues --   -0.44052  -0.43907  -0.43837  -0.43473  -0.43407
 Alpha  occ. eigenvalues --   -0.43213  -0.43181  -0.42952  -0.42697  -0.42310
 Alpha  occ. eigenvalues --   -0.42236  -0.42024  -0.41795  -0.41643  -0.41511
 Alpha  occ. eigenvalues --   -0.41337  -0.41153  -0.41015  -0.40862  -0.40743
 Alpha  occ. eigenvalues --   -0.40560  -0.40434  -0.40240  -0.40202  -0.40094
 Alpha  occ. eigenvalues --   -0.39935  -0.39837  -0.39737  -0.39663  -0.39591
 Alpha  occ. eigenvalues --   -0.39377  -0.39245  -0.39101  -0.39022  -0.38927
 Alpha  occ. eigenvalues --   -0.38875  -0.38644  -0.38583  -0.38501  -0.38360
 Alpha  occ. eigenvalues --   -0.38205  -0.38136  -0.38034  -0.37962  -0.37867
 Alpha  occ. eigenvalues --   -0.37777  -0.37562  -0.37303  -0.37218  -0.37046
 Alpha  occ. eigenvalues --   -0.36808  -0.36528  -0.36496  -0.36406  -0.36176
 Alpha  occ. eigenvalues --   -0.35843  -0.35743  -0.35520  -0.35403  -0.35328
 Alpha  occ. eigenvalues --   -0.34953  -0.34563  -0.34391  -0.34301  -0.34184
 Alpha  occ. eigenvalues --   -0.34141  -0.34053  -0.33942  -0.33549  -0.33366
 Alpha  occ. eigenvalues --   -0.33318  -0.33222  -0.32798  -0.32705  -0.32462
 Alpha  occ. eigenvalues --   -0.32147  -0.31711  -0.31455  -0.31345  -0.31151
 Alpha  occ. eigenvalues --   -0.30992  -0.30890  -0.30859  -0.30681  -0.30176
 Alpha  occ. eigenvalues --   -0.29228  -0.28573  -0.28497  -0.27747  -0.27719
 Alpha  occ. eigenvalues --   -0.27003  -0.26901  -0.26476  -0.26360  -0.26162
 Alpha  occ. eigenvalues --   -0.26090  -0.25184  -0.25056  -0.24502  -0.24283
 Alpha  occ. eigenvalues --   -0.24179  -0.23815  -0.23669  -0.23633  -0.23561
 Alpha  occ. eigenvalues --   -0.23105  -0.22935  -0.22878  -0.22334  -0.21724
 Alpha  occ. eigenvalues --   -0.21623  -0.21068  -0.20871  -0.20584  -0.20200
 Alpha  occ. eigenvalues --   -0.20149  -0.19689  -0.19499  -0.19454  -0.18953
 Alpha  occ. eigenvalues --   -0.18665  -0.17189  -0.16441
 Alpha virt. eigenvalues --   -0.10880  -0.04902  -0.04817  -0.04292  -0.02470
 Alpha virt. eigenvalues --   -0.00935  -0.00558  -0.00088   0.00209   0.00383
 Alpha virt. eigenvalues --    0.00936   0.01661   0.01865   0.02067   0.02321

 Mulliken charges:
               1
     1  C    0.061355
     2  C    0.042930
     3  O   -0.306107
     4  H    0.044191
     5  H    0.029754
     6  H   -0.005002
     7  N   -0.106060
     8  C    0.073843
     9  C    0.010092
    10  O   -0.296142
    11  C    0.089835
    12  C    0.119113
    13  O   -0.439479
    14  O   -0.386214
    15  H    0.119574
    16  H    0.026502
    17  H    0.014929
    18  H   -0.009640
    19  N   -0.120191
    20  C    0.163645
    21  C    0.022295
    22  O   -0.290943
    23  C    0.031303
    24  C   -0.012771
    25  C   -0.017259
    26  C   -0.001524
    27  N    0.098307
    28  H    0.170250
    29  H    0.004730
    30  H    0.005562
    31  H    0.021344
    32  H    0.012728
    33  H    0.028842
    34  H    0.040068
    35  H    0.025560
    36  H    0.072367
    37  H    0.060100
    38  H    0.184138
    39  H    0.201315
    40  H    0.196204
    41  N   -0.145771
    42  C    0.152073
    43  C    0.024143
    44  O   -0.286599
    45  C    0.063812
    46  C    0.127071
    47  O   -0.389470
    48  O   -0.467806
    49  H    0.147141
    50  H    0.005279
    51  H   -0.006578
    52  H    0.015775
    53  N   -0.182524
    54  C    0.241287
    55  C    0.046221
    56  O   -0.305973
    57  H    0.141426
    58  H    0.018612
    59  H    0.041162
    60  N   -0.153996
    61  C    0.170563
    62  C    0.041448
    63  O   -0.320080
    64  C    0.082772
    65  C    0.043553
    66  N   -0.015437
    67  O   -0.332130
    68  H    0.155027
    69  H    0.029186
    70  H    0.079283
    71  H   -0.011736
    72  H    0.127911
    73  H    0.101383
    74  N   -0.161010
    75  C    0.222863
    76  C    0.073977
    77  O   -0.288972
    78  H    0.152122
    79  H    0.038775
    80  H    0.040045
    81  N   -0.172965
    82  C    0.160555
    83  C    0.161884
    84  O   -0.362209
    85  C    0.127581
    86  C    0.007577
    87  C    0.001409
    88  C   -0.001791
    89  C   -0.037656
    90  C   -0.065244
    91  C    0.161946
    92  O   -0.203010
    93  H    0.143054
    94  H   -0.000179
    95  H   -0.021293
    96  H   -0.049029
    97  H   -0.037546
    98  H   -0.037837
    99  H   -0.029776
   100  H   -0.026957
   101  H    0.171830
   102  N   -0.099739
   103  C    0.125644
   104  C    0.023521
   105  O   -0.278422
   106  C   -0.111563
   107  C   -0.019769
   108  C    0.103151
   109  C    0.062164
   110  H    0.129239
   111  H    0.025975
   112  H   -0.022586
   113  H    0.001892
   114  H   -0.005807
   115  H    0.007863
   116  H    0.018831
   117  H   -0.003455
   118  H    0.011526
   119  H    0.014651
   120  H    0.003842
   121  N   -0.136353
   122  C    0.079495
   123  C    0.100193
   124  O   -0.276431
   125  C    0.291506
   126  O   -0.338257
   127  H    0.155286
   128  H    0.006027
   129  H   -0.026306
   130  H   -0.026384
   131  H    0.168884
   132  N   -0.130597
   133  C    0.039316
   134  C    0.065491
   135  O   -0.256148
   136  C    0.062460
   137  H    0.118178
   138  H    0.026611
   139  H    0.032355
   140  H    0.009392
   141  H    0.044009
   142  N   -0.145049
   143  C    0.087597
   144  C    0.072090
   145  O   -0.283257
   146  C    0.031344
   147  H    0.100426
   148  H    0.018571
   149  H    0.022664
   150  H    0.039264
   151  H    0.003622
   152  N   -0.133190
   153  C    0.177762
   154  C    0.055565
   155  O   -0.285434
   156  C   -0.077232
   157  C    0.170723
   158  C    0.106690
   159  O   -0.446772
   160  O   -0.367444
   161  H    0.120163
   162  H   -0.007973
   163  H    0.024093
   164  H   -0.003630
   165  H   -0.009999
   166  H   -0.016937
   167  N   -0.174765
   168  C    0.152378
   169  H    0.029330
   170  H    0.013278
   171  H    0.009674
   172  H    0.132091
   173  Ca   1.286294
   174  O   -0.279290
   175  H    0.187906
   176  H    0.209045
 Sum of Mulliken charges =   0.00000

 Dipole moment (field-independent basis, Debye):
    X=             30.9644    Y=              9.0882    Z=             -8.1275  Tot=             33.2783
 Quadrupole moment (field-independent basis, Debye-Ang):
   XX=           -600.1876   YY=           -323.8160   ZZ=           -541.3450
   XY=            197.6513   XZ=             10.6285   YZ=             47.4989

 ESP charges:
               1
     1  C   -0.410237
     2  C    0.885144
     3  O   -0.701605
     4  H    0.118545
     5  H    0.102441
     6  H    0.085565
     7  N   -0.880834
     8  C    0.603662
     9  C    0.350556
    10  O   -0.571196
    11  C   -0.380418
    12  C    0.904105
    13  O   -0.961177
    14  O   -0.701876
    15  H    0.382443
    16  H   -0.030833
    17  H    0.072815
    18  H    0.047741
    19  N    0.023208
    20  C   -0.369552
    21  C    0.590613
    22  O   -0.595918
    23  C    0.221350
    24  C    0.010114
    25  C   -0.406259
    26  C    0.396891
    27  N   -0.626161
    28  H    0.209726
    29  H    0.129783
    30  H    0.011751
    31  H   -0.003978
    32  H    0.029101
    33  H    0.050121
    34  H    0.103010
    35  H    0.118328
    36  H    0.017375
    37  H    0.018329
    38  H    0.371362
    39  H    0.394422
    40  H    0.390652
    41  N   -0.531028
    42  C    0.173730
    43  C    0.429972
    44  O   -0.555298
    45  C   -0.327176
    46  C    0.803494
    47  O   -0.727704
    48  O   -0.781335
    49  H    0.332849
    50  H    0.077684
    51  H    0.092867
    52  H    0.093387
    53  N   -0.096743
    54  C   -0.392890
    55  C    0.682566
    56  O   -0.601297
    57  H    0.189964
    58  H    0.149490
    59  H    0.163287
    60  N   -0.371183
    61  C    0.004073
    62  C    0.394380
    63  O   -0.544569
    64  C   -0.287584
    65  C    0.661496
    66  N   -0.775211
    67  O   -0.548572
    68  H    0.282828
    69  H    0.130087
    70  H    0.158476
    71  H    0.059994
    72  H    0.371743
    73  H    0.340559
    74  N   -0.050791
    75  C   -0.505189
    76  C    0.756824
    77  O   -0.580750
    78  H    0.211873
    79  H    0.202508
    80  H    0.169744
    81  N   -0.470660
    82  C   -0.095561
    83  C    0.750424
    84  O   -0.513237
    85  C    0.097646
    86  C   -0.111521
    87  C   -0.020501
    88  C   -0.065098
    89  C   -0.396625
    90  C   -0.459493
    91  C    0.562428
    92  O   -0.604842
    93  H    0.291794
    94  H    0.118345
    95  H    0.001368
    96  H   -0.061112
    97  H    0.097977
    98  H    0.206862
    99  H    0.183562
   100  H    0.171389
   101  H    0.417592
   102  N   -0.729949
   103  C    0.057724
   104  C    0.657671
   105  O   -0.567129
   106  C    0.110037
   107  C    0.203365
   108  C   -0.371292
   109  C   -0.408494
   110  H    0.347369
   111  H    0.062569
   112  H    0.021185
   113  H    0.003337
   114  H   -0.023499
   115  H    0.076271
   116  H    0.114767
   117  H    0.094698
   118  H    0.104302
   119  H    0.097743
   120  H    0.091824
   121  N   -0.543795
   122  C    0.047684
   123  C    0.602663
   124  O   -0.430826
   125  C    0.275708
   126  O   -0.612779
   127  H    0.348430
   128  H    0.021849
   129  H   -0.022962
   130  H    0.001931
   131  H    0.373064
   132  N   -0.579986
   133  C    0.216669
   134  C    0.438023
   135  O   -0.507958
   136  C   -0.298260
   137  H    0.304463
   138  H    0.064797
   139  H    0.104590
   140  H    0.064973
   141  H    0.098538
   142  N   -0.307095
   143  C    0.058712
   144  C    0.298098
   145  O   -0.512402
   146  C   -0.267591
   147  H    0.233560
   148  H    0.102278
   149  H    0.078982
   150  H    0.109933
   151  H    0.064873
   152  N    0.197585
   153  C   -0.457445
   154  C    0.660360
   155  O   -0.573140
   156  C    0.409338
   157  C   -0.369717
   158  C    0.972468
   159  O   -0.796073
   160  O   -0.811101
   161  H    0.018423
   162  H    0.133625
   163  H   -0.011839
   164  H   -0.208260
   165  H    0.046426
   166  H    0.082420
   167  N   -0.278786
   168  C   -0.237587
   169  H    0.122538
   170  H    0.093950
   171  H    0.097194
   172  H    0.187313
   173  Ca   1.522246
   174  O   -0.739669
   175  H    0.383923
   176  H    0.430744
 Sum of ESP charges =   0.00000

 Normal termination of Gaussian 09 at Mon Sep 16 14:52:39 2019.
