 Gaussian 09, Revision D.01,
 Gaussian 09:  ES64L-G09RevD.01 24-Apr-2013

 ----------------------------------------------------------------------
 #maxdisk=50GB #B3LYP/SVP Density=Current scf=(tight) #IOP(5/87=12)Pop=
 (MK,readradii) iop(6/33=2) iop(6/42=6)
 ----------------------------------------------------------------------

 ------------
 SOL molecule
 ------------
 Symbolic Z-matrix:
 Charge =  0 Multiplicity = 1

                         Standard orientation:
 ---------------------------------------------------------------------
 Center     Atomic      Atomic             Coordinates (Angstroms)
 Number     Number       Type             X           Y           Z
 ---------------------------------------------------------------------
      1          6           0        2.276418    1.234911    5.824418
      2          6           0        1.772748    1.515400    4.415787
      3          8           0        2.575553    1.432032    3.486350
      4          1           0        1.941933    2.026899    6.494078
      5          1           0        1.881791    0.278395    6.168092
      6          1           0        3.365981    1.199886    5.820907
      7          7           0        0.460714    1.735636    4.288647
      8          6           0       -0.231916    1.805621    3.025213
      9          6           0        0.111295    3.158932    2.404201
     10          8           0       -0.460336    4.157406    2.828921
     11          6           0       -1.717037    1.512249    3.196815
     12          6           0       -2.462053    1.361043    1.879246
     13          8           0       -3.688787    1.128853    1.875940
     14          8           0       -1.769986    1.453475    0.837421
     15          1           0       -0.089654    1.853641    5.122295
     16          1           0        0.172651    1.052612    2.342934
     17          1           0       -2.156735    2.244078    3.883249
     18          1           0       -1.761423    0.533119    3.678929
     19          7           0        0.956010    3.121839    1.367050
     20          6           0        1.512666    4.376099    0.914650
     21          6           0        0.548603    5.271083    0.141419
     22          8           0        0.727024    6.476991    0.239655
     23          6           0        2.813941    4.106265    0.168678
     24          6           0        3.770004    5.292681    0.196247
     25          6           0        5.128433    4.951733   -0.428993
     26          6           0        6.030008    6.176267   -0.282772
     27          7           0        7.318489    6.079251   -0.978044
     28          1           0        1.386599    2.227041    1.168733
     29          1           0        1.753721    4.916420    1.831953
     30          1           0        2.601246    3.854502   -0.867071
     31          1           0        3.315528    3.258356    0.641077
     32          1           0        3.914079    5.578748    1.235818
     33          1           0        3.285469    6.156336   -0.268323
     34          1           0        4.934214    4.687675   -1.467478
     35          1           0        5.601326    4.173701    0.156958
     36          1           0        6.101350    6.344762    0.794038
     37          1           0        5.429085    6.989862   -0.686944
     38          1           0        7.973151    5.583916   -0.398595
     39          1           0        7.179980    5.658551   -1.886684
     40          1           0        7.716284    7.005301   -1.101292
     41          7           0       -0.465176    4.687765   -0.500838
     42          6           0       -1.420951    5.468914   -1.254762
     43          6           0       -2.866650    5.319947   -0.808035
     44          8           0       -3.688791    6.058690   -1.346219
     45          6           0       -1.303810    5.173723   -2.755508
     46          6           0       -1.641574    3.773787   -3.240479
     47          8           0       -1.949499    2.864601   -2.440002
     48          8           0       -1.527856    3.575495   -4.468831
     49          1           0       -0.389930    3.690446   -0.664214
     50          1           0       -1.305728    6.537806   -1.113719
     51          1           0       -0.264695    5.377602   -3.014686
     52          1           0       -1.929446    5.899694   -3.261715
     53          7           0       -3.107737    4.550019    0.256524
     54          6           0       -4.343504    4.316660    0.964989
     55          6           0       -5.446222    3.519016    0.283318
     56          8           0       -6.597820    3.698507    0.655077
     57          1           0       -2.312392    4.002745    0.557387
     58          1           0       -4.773680    5.207952    1.437692
     59          1           0       -4.084959    3.664894    1.802160
     60          7           0       -5.224015    2.609249   -0.670018
     61          6           0       -6.327850    1.833461   -1.201619
     62          6           0       -6.870969    0.703391   -0.338739
     63          8           0       -7.883938    0.098838   -0.697361
     64          6           0       -5.893497    1.346533   -2.586119
     65          6           0       -5.008333    0.114509   -2.585338
     66          7           0       -5.488881   -0.968617   -3.192144
     67          8           0       -3.910974    0.006938   -2.038410
     68          1           0       -4.313588    2.440796   -1.075167
     69          1           0       -7.136512    2.548816   -1.287839
     70          1           0       -5.497235    2.204164   -3.143206
     71          1           0       -6.829384    1.036573   -3.053708
     72          1           0       -6.445169   -1.129406   -3.481039
     73          1           0       -4.824634   -1.716513   -3.313495
     74          7           0       -6.204052    0.203845    0.707864
     75          6           0       -6.511875   -0.895791    1.597384
     76          6           0       -5.473678   -2.002379    1.702312
     77          8           0       -5.816917   -3.097223    2.148410
     78          1           0       -5.333752    0.662068    0.943470
     79          1           0       -7.417970   -1.317270    1.174245
     80          1           0       -6.754122   -0.547540    2.599700
     81          7           0       -4.304170   -1.761529    1.097547
     82          6           0       -3.397660   -2.849018    0.812226
     83          6           0       -1.928868   -2.481737    0.783000
     84          8           0       -1.511044   -1.474213    0.209573
     85          6           0       -3.877437   -3.510440   -0.478368
     86          6           0       -5.259210   -4.086120   -0.679353
     87          6           0       -5.497623   -5.443084   -0.394204
     88          6           0       -6.304207   -3.211980   -0.991698
     89          6           0       -6.803907   -5.945732   -0.523302
     90          6           0       -7.629254   -3.681925   -0.992427
     91          6           0       -7.868695   -5.028575   -0.687465
     92          8           0       -9.125845   -5.528697   -0.532697
     93          1           0       -4.182892   -0.850978    0.675304
     94          1           0       -3.655977   -3.606041    1.556261
     95          1           0       -3.234083   -4.366807   -0.655377
     96          1           0       -3.764635   -2.843662   -1.324290
     97          1           0       -4.643285   -6.087457   -0.281999
     98          1           0       -6.069461   -2.169520   -1.057816
     99          1           0       -7.049738   -6.963171   -0.278995
    100          1           0       -8.449885   -2.988331   -1.098223
    101          1           0       -9.849846   -4.901147   -0.639482
    102          7           0       -1.085297   -3.286181    1.432198
    103          6           0        0.345658   -3.040438    1.474365
    104          6           0        0.968756   -3.892948    0.375741
    105          8           0        0.700608   -5.084598    0.265431
    106          6           0        0.920811   -3.490875    2.813658
    107          6           0        0.004619   -3.090705    3.965984
    108          6           0        2.296313   -2.855994    2.998644
    109          6           0        0.371421   -3.627012    5.344219
    110          1           0       -1.413641   -4.154202    1.836709
    111          1           0        0.570130   -1.988628    1.296860
    112          1           0        1.037926   -4.575274    2.849190
    113          1           0       -0.985311   -3.525174    3.802659
    114          1           0       -0.072715   -2.007420    3.948236
    115          1           0        2.036964   -1.807862    3.115932
    116          1           0        2.733524   -3.307692    3.887303
    117          1           0        2.920817   -2.998038    2.115740
    118          1           0        1.374273   -3.249112    5.593176
    119          1           0       -0.278921   -3.178699    6.101695
    120          1           0        0.276547   -4.705740    5.421325
    121          7           0        1.862351   -3.307932   -0.422471
    122          6           0        2.679942   -3.925451   -1.446589
    123          6           0        4.162226   -3.854248   -1.114075
    124          8           0        4.506912   -3.057041   -0.249407
    125          6           0        2.413235   -3.231167   -2.785781
    126          8           0        3.426558   -2.300752   -3.121646
    127          1           0        2.031395   -2.318581   -0.328082
    128          1           0        2.323693   -4.946618   -1.529076
    129          1           0        1.442399   -2.738879   -2.708782
    130          1           0        2.354406   -3.924108   -3.614197
    131          1           0        3.172637   -1.977978   -3.984167
    132          7           0        4.993218   -4.756301   -1.646196
    133          6           0        6.288255   -4.850270   -0.995160
    134          6           0        7.126511   -3.586525   -1.160312
    135          8           0        8.053871   -3.287220   -0.410032
    136          6           0        7.054187   -6.070707   -1.486059
    137          1           0        4.763228   -5.341430   -2.433615
    138          1           0        6.031467   -4.973709    0.055089
    139          1           0        7.446159   -5.995250   -2.504324
    140          1           0        7.735944   -6.391660   -0.703246
    141          1           0        6.408410   -6.945478   -1.513394
    142          7           0        6.844161   -2.762686   -2.163989
    143          6           0        7.401305   -1.443916   -2.427874
    144          6           0        6.930773   -0.416911   -1.412167
    145          8           0        7.711624    0.401636   -0.914520
    146          6           0        7.240810   -1.073802   -3.895647
    147          1           0        6.139224   -3.119886   -2.796897
    148          1           0        8.455442   -1.561477   -2.200996
    149          1           0        6.181172   -1.046066   -4.121478
    150          1           0        7.722889   -0.104259   -4.047258
    151          1           0        7.719496   -1.771289   -4.582795
    152          7           0        5.648401   -0.430005   -1.057979
    153          6           0        5.215083    0.339085    0.088858
    154          6           0        5.794093   -0.098189    1.431593
    155          8           0        6.274743    0.794486    2.127443
    156          6           0        3.691361    0.365678    0.096960
    157          6           0        3.055482    0.754313   -1.228453
    158          6           0        1.539150    0.793632   -1.044899
    159          8           0        0.953499   -0.191437   -0.572614
    160          8           0        0.810309    1.744816   -1.396096
    161          1           0        5.011048   -1.103671   -1.457047
    162          1           0        5.590133    1.361557    0.000042
    163          1           0        3.201189    0.912786    0.907210
    164          1           0        3.339924   -0.626873    0.393496
    165          1           0        3.295881    0.045788   -2.013055
    166          1           0        3.361028    1.764307   -1.511212
    167          7           0        5.845015   -1.399555    1.702803
    168          6           0        6.559556   -1.757641    2.910406
    169          1           0        7.554492   -1.312614    2.888317
    170          1           0        6.014836   -1.386754    3.778766
    171          1           0        6.648979   -2.842374    2.972434
    172          1           0        5.379565   -2.071592    1.104871
    173         20           0       -1.462553    0.505776   -1.489778
    174          8           0       -1.105690   -1.496352   -3.093970
    175          1           0       -0.931417   -1.223495   -3.984014
    176          1           0       -0.965987   -2.441171   -3.094592
 ---------------------------------------------------------------------

 SCF Done:  E(RB3LYP) =  -5333.59417029     A.U. after   18 cycles

 The electronic state is 1-A.
 Alpha  occ. eigenvalues -- -145.35415 -19.20958 -19.19503 -19.15351 -19.14677
 Alpha  occ. eigenvalues --  -19.13011 -19.11714 -19.10611 -19.10313 -19.09254
 Alpha  occ. eigenvalues --  -19.08187 -19.06970 -19.06772 -19.06545 -19.06283
 Alpha  occ. eigenvalues --  -19.06161 -19.05774 -19.05747 -19.04643 -19.04511
 Alpha  occ. eigenvalues --  -19.03838 -19.03215 -19.02177 -18.98743 -15.41219
 Alpha  occ. eigenvalues --  -14.58199 -14.40814 -14.37116 -14.36894 -14.36723
 Alpha  occ. eigenvalues --  -14.36617 -14.34981 -14.34091 -14.33210 -14.32676
 Alpha  occ. eigenvalues --  -14.32192 -14.31532 -14.31138 -14.30706 -14.29683
 Alpha  occ. eigenvalues --  -12.54827 -12.54785 -12.54779 -10.33498 -10.33380
 Alpha  occ. eigenvalues --  -10.31447 -10.30140 -10.29591 -10.29244 -10.28493
 Alpha  occ. eigenvalues --  -10.27977 -10.27053 -10.26957 -10.26878 -10.25856
 Alpha  occ. eigenvalues --  -10.25584 -10.25520 -10.25208 -10.25144 -10.24475
 Alpha  occ. eigenvalues --  -10.24429 -10.24202 -10.23935 -10.23740 -10.23524
 Alpha  occ. eigenvalues --  -10.23312 -10.22900 -10.22377 -10.22015 -10.21680
 Alpha  occ. eigenvalues --  -10.21411 -10.21389 -10.21315 -10.20456 -10.19890
 Alpha  occ. eigenvalues --  -10.19878 -10.19866 -10.19754 -10.19530 -10.19245
 Alpha  occ. eigenvalues --  -10.19057 -10.18499 -10.18148 -10.17944 -10.17923
 Alpha  occ. eigenvalues --  -10.17919 -10.17910 -10.17808 -10.17667 -10.17516
 Alpha  occ. eigenvalues --  -10.17492 -10.17370 -10.17364 -10.17271 -10.17033
 Alpha  occ. eigenvalues --  -10.16002 -10.12198  -1.78180  -1.13270  -1.09023
 Alpha  occ. eigenvalues --   -1.07595  -1.07469  -1.06272  -1.05730  -1.05353
 Alpha  occ. eigenvalues --   -1.05134  -1.04605  -1.03926  -1.03617  -1.03127
 Alpha  occ. eigenvalues --   -1.02182  -1.01821  -1.00956  -1.00196  -0.99602
 Alpha  occ. eigenvalues --   -0.99570  -0.99533  -0.98688  -0.98484  -0.98358
 Alpha  occ. eigenvalues --   -0.97625  -0.96138  -0.94965  -0.93942  -0.93441
 Alpha  occ. eigenvalues --   -0.93391  -0.91875  -0.91548  -0.90909  -0.90781
 Alpha  occ. eigenvalues --   -0.90339  -0.89829  -0.89046  -0.89026  -0.88467
 Alpha  occ. eigenvalues --   -0.87910  -0.87497  -0.87455  -0.85913  -0.84773
 Alpha  occ. eigenvalues --   -0.83372  -0.82750  -0.81929  -0.79819  -0.79754
 Alpha  occ. eigenvalues --   -0.78879  -0.77862  -0.77789  -0.77028  -0.76062
 Alpha  occ. eigenvalues --   -0.74789  -0.74097  -0.73218  -0.72957  -0.72664
 Alpha  occ. eigenvalues --   -0.72205  -0.71870  -0.71216  -0.70898  -0.70830
 Alpha  occ. eigenvalues --   -0.70340  -0.69677  -0.68762  -0.68517  -0.67565
 Alpha  occ. eigenvalues --   -0.66555  -0.66310  -0.65772  -0.65631  -0.64458
 Alpha  occ. eigenvalues --   -0.63375  -0.62960  -0.62314  -0.61417  -0.61136
 Alpha  occ. eigenvalues --   -0.61070  -0.60839  -0.60660  -0.60508  -0.60419
 Alpha  occ. eigenvalues --   -0.60209  -0.59534  -0.59340  -0.59263  -0.58369
 Alpha  occ. eigenvalues --   -0.57651  -0.57492  -0.57260  -0.56933  -0.56689
 Alpha  occ. eigenvalues --   -0.56461  -0.55703  -0.55660  -0.55600  -0.55271
 Alpha  occ. eigenvalues --   -0.54674  -0.54417  -0.54273  -0.53446  -0.53138
 Alpha  occ. eigenvalues --   -0.53001  -0.52700  -0.52103  -0.51674  -0.51429
 Alpha  occ. eigenvalues --   -0.51237  -0.51046  -0.50444  -0.50174  -0.50079
 Alpha  occ. eigenvalues --   -0.49680  -0.48905  -0.48831  -0.48413  -0.48263
 Alpha  occ. eigenvalues --   -0.48041  -0.47792  -0.47560  -0.47527  -0.47351
 Alpha  occ. eigenvalues --   -0.47314  -0.47134  -0.47023  -0.46963  -0.46679
 Alpha  occ. eigenvalues --   -0.46515  -0.46139  -0.45939  -0.45664  -0.45409
 Alpha  occ. eigenvalues --   -0.45359  -0.45256  -0.45152  -0.44906  -0.44730
 Alpha  occ. eigenvalues --   -0.44416  -0.44204  -0.44077  -0.43917  -0.43702
 Alpha  occ. eigenvalues --   -0.43642  -0.43511  -0.43161  -0.43021  -0.42827
 Alpha  occ. eigenvalues --   -0.42701  -0.42217  -0.42066  -0.41937  -0.41780
 Alpha  occ. eigenvalues --   -0.41594  -0.41474  -0.41425  -0.41234  -0.41195
 Alpha  occ. eigenvalues --   -0.41072  -0.40895  -0.40663  -0.40607  -0.40528
 Alpha  occ. eigenvalues --   -0.40429  -0.40248  -0.39996  -0.39965  -0.39600
 Alpha  occ. eigenvalues --   -0.39491  -0.39477  -0.39324  -0.39277  -0.39181
 Alpha  occ. eigenvalues --   -0.38952  -0.38799  -0.38760  -0.38716  -0.38550
 Alpha  occ. eigenvalues --   -0.38443  -0.38405  -0.38255  -0.38101  -0.38031
 Alpha  occ. eigenvalues --   -0.37998  -0.37798  -0.37705  -0.37399  -0.37241
 Alpha  occ. eigenvalues --   -0.37070  -0.37011  -0.36962  -0.36808  -0.36692
 Alpha  occ. eigenvalues --   -0.36543  -0.36324  -0.35801  -0.35700  -0.35336
 Alpha  occ. eigenvalues --   -0.35270  -0.34996  -0.34816  -0.34730  -0.34474
 Alpha  occ. eigenvalues --   -0.34390  -0.34266  -0.33985  -0.33774  -0.33554
 Alpha  occ. eigenvalues --   -0.33346  -0.33017  -0.32946  -0.32777  -0.32629
 Alpha  occ. eigenvalues --   -0.32541  -0.32407  -0.32206  -0.32160  -0.31897
 Alpha  occ. eigenvalues --   -0.31537  -0.31475  -0.31357  -0.30891  -0.29863
 Alpha  occ. eigenvalues --   -0.29735  -0.29256  -0.28692  -0.28445  -0.28097
 Alpha  occ. eigenvalues --   -0.27874  -0.27392  -0.26529  -0.26118  -0.26063
 Alpha  occ. eigenvalues --   -0.26010  -0.25172  -0.24898  -0.24665  -0.24604
 Alpha  occ. eigenvalues --   -0.24331  -0.24157  -0.23864  -0.23769  -0.23407
 Alpha  occ. eigenvalues --   -0.23348  -0.23090  -0.22315  -0.22173  -0.22120
 Alpha  occ. eigenvalues --   -0.21873  -0.21521  -0.21337  -0.21232  -0.20907
 Alpha  occ. eigenvalues --   -0.20736  -0.20272  -0.19758  -0.19469  -0.18951
 Alpha  occ. eigenvalues --   -0.18336  -0.18051  -0.15095
 Alpha virt. eigenvalues --   -0.09897  -0.04212  -0.03976  -0.03473  -0.02993
 Alpha virt. eigenvalues --   -0.01171  -0.01068  -0.00529  -0.00128  -0.00044
 Alpha virt. eigenvalues --    0.00260   0.01105   0.01258   0.01634   0.01926

 Mulliken charges:
               1
     1  C    0.040779
     2  C    0.031861
     3  O   -0.289280
     4  H    0.017327
     5  H    0.028037
     6  H    0.032484
     7  N   -0.115340
     8  C    0.082054
     9  C    0.082680
    10  O   -0.286510
    11  C    0.057421
    12  C    0.158539
    13  O   -0.380217
    14  O   -0.457742
    15  H    0.114045
    16  H    0.000065
    17  H    0.017691
    18  H    0.002641
    19  N   -0.125313
    20  C    0.134469
    21  C    0.064223
    22  O   -0.293847
    23  C    0.031580
    24  C   -0.046256
    25  C   -0.015230
    26  C   -0.027380
    27  N    0.109904
    28  H    0.161359
    29  H    0.001618
    30  H    0.031013
    31  H    0.022351
    32  H    0.001518
    33  H    0.029746
    34  H    0.028193
    35  H    0.055974
    36  H    0.081676
    37  H    0.068520
    38  H    0.201351
    39  H    0.199051
    40  H    0.192177
    41  N   -0.153498
    42  C    0.130648
    43  C    0.045176
    44  O   -0.290882
    45  C    0.056281
    46  C    0.122104
    47  O   -0.478660
    48  O   -0.379660
    49  H    0.167438
    50  H    0.015425
    51  H   -0.014824
    52  H    0.019108
    53  N   -0.139933
    54  C    0.234022
    55  C    0.044498
    56  O   -0.296913
    57  H    0.139197
    58  H    0.018175
    59  H    0.029919
    60  N   -0.155218
    61  C    0.131429
    62  C    0.071462
    63  O   -0.318058
    64  C    0.058836
    65  C    0.102477
    66  N   -0.047393
    67  O   -0.366430
    68  H    0.135200
    69  H    0.031284
    70  H    0.080046
    71  H    0.003177
    72  H    0.144966
    73  H    0.132084
    74  N   -0.194179
    75  C    0.246563
    76  C    0.029522
    77  O   -0.292997
    78  H    0.147669
    79  H    0.027021
    80  H    0.034503
    81  N   -0.140670
    82  C    0.145264
    83  C    0.178943
    84  O   -0.340409
    85  C    0.111594
    86  C   -0.054897
    87  C    0.018471
    88  C   -0.000729
    89  C   -0.005393
    90  C   -0.035312
    91  C    0.159063
    92  O   -0.210681
    93  H    0.130625
    94  H   -0.007070
    95  H   -0.033525
    96  H   -0.040454
    97  H   -0.037565
    98  H   -0.031128
    99  H   -0.025247
   100  H   -0.025264
   101  H    0.177432
   102  N   -0.122652
   103  C    0.133334
   104  C    0.051184
   105  O   -0.288106
   106  C   -0.107861
   107  C    0.012900
   108  C    0.060767
   109  C    0.036679
   110  H    0.137260
   111  H    0.045160
   112  H   -0.017059
   113  H   -0.016898
   114  H    0.004324
   115  H    0.021915
   116  H    0.012206
   117  H    0.003362
   118  H    0.004991
   119  H    0.009490
   120  H    0.012757
   121  N   -0.123620
   122  C    0.070005
   123  C    0.133568
   124  O   -0.281685
   125  C    0.228941
   126  O   -0.292190
   127  H    0.150133
   128  H    0.020680
   129  H   -0.019315
   130  H   -0.010180
   131  H    0.178945
   132  N   -0.149794
   133  C    0.073927
   134  C    0.056398
   135  O   -0.264240
   136  C    0.067817
   137  H    0.126434
   138  H    0.028759
   139  H    0.020965
   140  H    0.045201
   141  H    0.005842
   142  N   -0.136106
   143  C    0.126156
   144  C    0.054903
   145  O   -0.287933
   146  C    0.054472
   147  H    0.089921
   148  H    0.012152
   149  H   -0.002309
   150  H    0.025292
   151  H    0.021533
   152  N   -0.143372
   153  C    0.186149
   154  C    0.064806
   155  O   -0.289080
   156  C   -0.059230
   157  C    0.156340
   158  C    0.045164
   159  O   -0.407171
   160  O   -0.404508
   161  H    0.136355
   162  H   -0.030031
   163  H    0.013262
   164  H   -0.018925
   165  H   -0.032380
   166  H   -0.033658
   167  N   -0.174818
   168  C    0.164423
   169  H    0.027037
   170  H    0.017233
   171  H   -0.003322
   172  H    0.140259
   173  Ca   1.274917
   174  O   -0.275284
   175  H    0.185397
   176  H    0.196146
 Sum of Mulliken charges =   0.00000

 Dipole moment (field-independent basis, Debye):
    X=             32.6789    Y=             -5.7624    Z=            -11.5107  Tot=             35.1228
 Quadrupole moment (field-independent basis, Debye-Ang):
   XX=           -503.8273   YY=           -503.5928   ZZ=           -519.9163
   XY=            173.4593   XZ=            -46.8648   YZ=             36.7699

 ESP charges:
               1
     1  C   -0.500576
     2  C    0.892190
     3  O   -0.678586
     4  H    0.105595
     5  H    0.128016
     6  H    0.145401
     7  N   -0.871585
     8  C    0.585573
     9  C    0.320547
    10  O   -0.523147
    11  C   -0.299056
    12  C    0.881666
    13  O   -0.712484
    14  O   -0.927598
    15  H    0.374906
    16  H   -0.041797
    17  H    0.064347
    18  H    0.036660
    19  N    0.084710
    20  C   -0.811903
    21  C    0.901430
    22  O   -0.600719
    23  C    0.359484
    24  C   -0.161906
    25  C    0.023942
    26  C    0.145293
    27  N   -0.538786
    28  H    0.238260
    29  H    0.226997
    30  H    0.001972
    31  H   -0.004833
    32  H    0.047950
    33  H    0.051437
    34  H    0.016960
    35  H    0.036457
    36  H    0.056886
    37  H    0.047798
    38  H    0.385259
    39  H    0.373616
    40  H    0.363555
    41  N   -0.819338
    42  C    0.261705
    43  C    0.503266
    44  O   -0.557879
    45  C   -0.369301
    46  C    0.915239
    47  O   -0.933136
    48  O   -0.721776
    49  H    0.530247
    50  H    0.057181
    51  H    0.072522
    52  H    0.087249
    53  N   -0.308417
    54  C   -0.129587
    55  C    0.571320
    56  O   -0.574690
    57  H    0.235569
    58  H    0.106056
    59  H    0.097636
    60  N   -0.378749
    61  C    0.085983
    62  C    0.357810
    63  O   -0.554902
    64  C   -0.462465
    65  C    0.807006
    66  N   -0.845692
    67  O   -0.675132
    68  H    0.275875
    69  H    0.139963
    70  H    0.197755
    71  H    0.119083
    72  H    0.399354
    73  H    0.386787
    74  N   -0.035774
    75  C   -0.239044
    76  C    0.569238
    77  O   -0.531242
    78  H    0.160586
    79  H    0.135752
    80  H    0.106130
    81  N   -0.361452
    82  C   -0.166762
    83  C    0.770779
    84  O   -0.540412
    85  C    0.189898
    86  C   -0.280922
    87  C    0.122014
    88  C    0.037496
    89  C   -0.477532
    90  C   -0.552903
    91  C    0.652168
    92  O   -0.620744
    93  H    0.207573
    94  H    0.105460
    95  H   -0.012477
    96  H   -0.071164
    97  H    0.069209
    98  H    0.200839
    99  H    0.198128
   100  H    0.186808
   101  H    0.427802
   102  N   -0.668108
   103  C   -0.291916
   104  C    0.646147
   105  O   -0.557020
   106  C    0.358480
   107  C    0.130231
   108  C   -0.267073
   109  C   -0.320398
   110  H    0.365925
   111  H    0.225776
   112  H   -0.050693
   113  H   -0.013941
   114  H   -0.005247
   115  H    0.046197
   116  H    0.073702
   117  H    0.010120
   118  H    0.054135
   119  H    0.082315
   120  H    0.083506
   121  N   -0.511276
   122  C    0.273776
   123  C    0.360373
   124  O   -0.345333
   125  C    0.149623
   126  O   -0.579460
   127  H    0.396205
   128  H   -0.000529
   129  H   -0.014214
   130  H   -0.002462
   131  H    0.411711
   132  N   -0.518191
   133  C    0.218009
   134  C    0.315813
   135  O   -0.505284
   136  C   -0.248376
   137  H    0.318887
   138  H    0.081006
   139  H    0.079909
   140  H    0.095513
   141  H    0.071266
   142  N   -0.216129
   143  C    0.023669
   144  C    0.474117
   145  O   -0.551265
   146  C   -0.313136
   147  H    0.183132
   148  H    0.109359
   149  H    0.064216
   150  H    0.111009
   151  H    0.101590
   152  N   -0.403761
   153  C    0.354295
   154  C    0.520730
   155  O   -0.555514
   156  C   -0.496122
   157  C   -0.181151
   158  C    0.899599
   159  O   -0.862162
   160  O   -0.846017
   161  H    0.301745
   162  H   -0.055149
   163  H    0.182493
   164  H    0.039539
   165  H    0.020191
   166  H    0.030043
   167  N   -0.198039
   168  C   -0.248799
   169  H    0.119913
   170  H    0.090188
   171  H    0.087480
   172  H    0.198125
   173  Ca   1.696799
   174  O   -0.821391
   175  H    0.424844
   176  H    0.416529
 Sum of ESP charges =   0.00000

 Normal termination of Gaussian 09 at Mon Sep 16 12:09:24 2019.
