 Gaussian 09, Revision D.01,
 Gaussian 09:  ES64L-G09RevD.01 24-Apr-2013

 ----------------------------------------------------------------------
 #maxdisk=50GB #B3LYP/SVP Density=Current scf=(tight) #IOP(5/87=12)Pop=
 (MK,readradii) iop(6/33=2) iop(6/42=6)
 ----------------------------------------------------------------------

 ------------
 SOL molecule
 ------------
 Symbolic Z-matrix:
 Charge =  0 Multiplicity = 1

                         Standard orientation:
 ---------------------------------------------------------------------
 Center     Atomic      Atomic             Coordinates (Angstroms)
 Number     Number       Type             X           Y           Z
 ---------------------------------------------------------------------
      1          6           0        2.482779    1.102884    5.728192
      2          6           0        1.833757    1.028310    4.360636
      3          8           0        2.549101    0.770074    3.390792
      4          1           0        3.304168    1.818572    5.700960
      5          1           0        1.745025    1.424301    6.463671
      6          1           0        2.866290    0.119833    6.003020
      7          7           0        0.538062    1.309916    4.209077
      8          6           0       -0.126541    1.508743    2.930456
      9          6           0        0.068564    2.929781    2.420276
     10          8           0       -0.552613    3.869436    2.920864
     11          6           0       -1.615216    1.176768    2.981817
     12          6           0       -2.391408    1.317224    1.687677
     13          8           0       -3.579260    0.920816    1.751444
     14          8           0       -1.914617    1.845224    0.655162
     15          1           0        0.010157    1.534088    5.035372
     16          1           0        0.291833    0.785940    2.234812
     17          1           0       -2.076499    1.868997    3.688597
     18          1           0       -1.732669    0.154443    3.341341
     19          7           0        0.932278    3.193711    1.435269
     20          6           0        1.414187    4.480431    0.978962
     21          6           0        0.368586    5.364876    0.312196
     22          8           0        0.468180    6.588205    0.381833
     23          6           0        2.557388    4.141875    0.018405
     24          6           0        3.513329    5.304059   -0.246371
     25          6           0        4.811723    5.007157   -0.997451
     26          6           0        5.649479    6.266139   -1.182460
     27          7           0        4.994814    7.247996   -2.068954
     28          1           0        1.137571    2.355373    0.921417
     29          1           0        1.908582    5.014056    1.789775
     30          1           0        2.111488    3.794524   -0.920275
     31          1           0        3.183823    3.319414    0.353721
     32          1           0        3.808045    5.599003    0.765089
     33          1           0        3.013406    6.163638   -0.683751
     34          1           0        4.546377    4.461806   -1.909747
     35          1           0        5.401699    4.268247   -0.456490
     36          1           0        6.608895    6.032996   -1.636845
     37          1           0        5.782030    6.689345   -0.183297
     38          1           0        4.146662    7.642200   -1.686540
     39          1           0        5.657510    7.964606   -2.325283
     40          1           0        4.715364    6.943230   -2.985701
     41          7           0       -0.666982    4.748388   -0.252109
     42          6           0       -1.670459    5.441280   -1.049000
     43          6           0       -3.081643    5.267573   -0.506980
     44          8           0       -3.991664    5.783818   -1.150372
     45          6           0       -1.520908    4.941798   -2.481639
     46          6           0       -1.276458    3.444415   -2.660489
     47          8           0       -2.127187    2.636193   -2.221813
     48          8           0       -0.259801    3.071536   -3.277959
     49          1           0       -0.769656    3.743068   -0.211008
     50          1           0       -1.518994    6.509595   -0.962622
     51          1           0       -0.732290    5.523085   -2.947565
     52          1           0       -2.422345    5.287204   -2.995260
     53          7           0       -3.253968    4.585603    0.629427
     54          6           0       -4.493040    4.369862    1.342066
     55          6           0       -5.523306    3.543203    0.589346
     56          8           0       -6.688981    3.575917    0.973834
     57          1           0       -2.426369    4.153278    1.015013
     58          1           0       -4.927850    5.337490    1.595907
     59          1           0       -4.231302    3.956301    2.310705
     60          7           0       -5.160655    2.854378   -0.497118
     61          6           0       -6.025365    2.091291   -1.371289
     62          6           0       -6.679976    0.928584   -0.629334
     63          8           0       -7.763556    0.517995   -1.055798
     64          6           0       -5.334329    1.665514   -2.670282
     65          6           0       -4.499753    0.389853   -2.642515
     66          7           0       -4.682085   -0.321396   -3.753271
     67          8           0       -3.791916   -0.112127   -1.778175
     68          1           0       -4.179170    2.666818   -0.669483
     69          1           0       -6.812210    2.771799   -1.681747
     70          1           0       -4.642145    2.445107   -3.008242
     71          1           0       -6.116741    1.574156   -3.421538
     72          1           0       -5.099426    0.068054   -4.588469
     73          1           0       -4.347445   -1.270600   -3.884529
     74          7           0       -6.168261    0.408854    0.481220
     75          6           0       -6.710362   -0.672498    1.287385
     76          6           0       -5.754452   -1.829865    1.550704
     77          8           0       -6.223948   -2.838125    2.056060
     78          1           0       -5.303970    0.774178    0.863370
     79          1           0       -7.598050   -1.112229    0.844275
     80          1           0       -7.046379   -0.259062    2.232247
     81          7           0       -4.489159   -1.848587    1.112545
     82          6           0       -3.518446   -2.921595    1.035915
     83          6           0       -2.074485   -2.461305    1.074752
     84          8           0       -1.759260   -1.471714    0.408611
     85          6           0       -3.619192   -3.654600   -0.296133
     86          6           0       -4.916441   -4.353166   -0.648339
     87          6           0       -5.319172   -5.558280   -0.075967
     88          6           0       -5.757155   -3.686245   -1.544898
     89          6           0       -6.457876   -6.228216   -0.528889
     90          6           0       -6.987724   -4.271195   -1.876008
     91          6           0       -7.297116   -5.570727   -1.445667
     92          8           0       -8.530233   -6.060823   -1.786591
     93          1           0       -4.140687   -0.944397    0.824955
     94          1           0       -3.625196   -3.656153    1.840608
     95          1           0       -2.793090   -4.375884   -0.359435
     96          1           0       -3.388353   -2.917065   -1.063502
     97          1           0       -4.650152   -6.016439    0.651359
     98          1           0       -5.535317   -2.713562   -1.952789
     99          1           0       -6.926399   -7.125549   -0.164224
    100          1           0       -7.657825   -3.680848   -2.487035
    101          1           0       -8.960807   -5.519129   -2.461331
    102          7           0       -1.201551   -3.247915    1.712977
    103          6           0        0.239927   -3.093979    1.736280
    104          6           0        0.916030   -4.055008    0.760059
    105          8           0        0.714418   -5.259114    0.861953
    106          6           0        0.814466   -3.343325    3.130817
    107          6           0        0.142556   -2.480866    4.202778
    108          6           0        2.327218   -3.121737    3.147537
    109          6           0        0.294816   -3.074079    5.603319
    110          1           0       -1.558297   -3.967042    2.324114
    111          1           0        0.571858   -2.120848    1.385655
    112          1           0        0.754646   -4.382631    3.423331
    113          1           0       -0.935434   -2.528101    4.077051
    114          1           0        0.371910   -1.409330    4.238927
    115          1           0        2.622140   -2.287058    2.507668
    116          1           0        2.638127   -2.860397    4.156069
    117          1           0        2.840689   -4.001520    2.764485
    118          1           0       -0.346210   -2.544405    6.293704
    119          1           0       -0.085499   -4.104365    5.556715
    120          1           0        1.362100   -3.060192    5.847677
    121          7           0        1.740610   -3.460296   -0.105149
    122          6           0        2.664056   -4.122171   -0.995188
    123          6           0        4.147162   -3.831776   -0.805013
    124          8           0        4.523867   -2.879328   -0.123957
    125          6           0        2.147872   -3.916508   -2.419498
    126          8           0        2.358772   -2.605063   -2.882351
    127          1           0        1.712007   -2.451844   -0.122656
    128          1           0        2.569266   -5.204273   -0.883078
    129          1           0        1.071681   -4.075866   -2.477955
    130          1           0        2.594985   -4.593598   -3.139317
    131          1           0        2.087120   -1.959649   -2.228940
    132          7           0        5.004444   -4.613505   -1.470871
    133          6           0        6.413238   -4.641315   -1.147568
    134          6           0        7.030997   -3.263393   -1.216154
    135          8           0        7.552606   -2.762566   -0.219913
    136          6           0        7.171093   -5.571620   -2.092602
    137          1           0        4.613007   -5.448248   -1.876557
    138          1           0        6.650479   -5.087834   -0.175231
    139          1           0        6.984981   -5.344151   -3.137073
    140          1           0        8.246909   -5.420897   -2.005416
    141          1           0        7.104089   -6.628200   -1.812335
    142          7           0        6.771397   -2.531525   -2.308389
    143          6           0        7.497387   -1.289861   -2.468733
    144          6           0        7.091814   -0.142460   -1.554797
    145          8           0        7.844172    0.803101   -1.312987
    146          6           0        7.274031   -0.805352   -3.902875
    147          1           0        6.218514   -2.845706   -3.092297
    148          1           0        8.545828   -1.577822   -2.416295
    149          1           0        7.539402   -1.559176   -4.644648
    150          1           0        6.288058   -0.395942   -4.081598
    151          1           0        7.905834    0.059773   -4.121930
    152          7           0        5.886671   -0.256161   -1.005976
    153          6           0        5.322638    0.552141    0.054596
    154          6           0        5.968387    0.121617    1.360795
    155          8           0        6.254306    1.050246    2.120531
    156          6           0        3.813926    0.317005    0.079108
    157          6           0        3.158027    0.658382   -1.250537
    158          6           0        1.705590    0.356852   -0.904117
    159          8           0        0.917043    1.230937   -0.474152
    160          8           0        1.168239   -0.737673   -1.184415
    161          1           0        5.353999   -1.080467   -1.253726
    162          1           0        5.640940    1.578144   -0.158484
    163          1           0        3.341218    0.979205    0.794118
    164          1           0        3.596133   -0.692609    0.455067
    165          1           0        3.478506    0.049785   -2.090658
    166          1           0        3.363291    1.702801   -1.480442
    167          7           0        6.252056   -1.135944    1.686175
    168          6           0        7.030976   -1.435689    2.876778
    169          1           0        8.005908   -0.952423    2.803968
    170          1           0        6.507102   -1.064011    3.757209
    171          1           0        7.165819   -2.514304    2.961953
    172          1           0        5.846823   -1.946914    1.238721
    173         20           0       -1.344191    0.393377   -1.420255
    174          8           0       -1.639447   -1.866028   -2.771556
    175          1           0       -1.896547   -2.781612   -2.872581
    176          1           0       -1.501694   -1.546482   -3.662294
 ---------------------------------------------------------------------

 SCF Done:  E(RB3LYP) =  -5333.59866775     A.U. after   17 cycles

 The electronic state is 1-A.
 Alpha  occ. eigenvalues -- -145.37103 -19.19550 -19.14652 -19.14072 -19.12416
 Alpha  occ. eigenvalues --  -19.11983 -19.11979 -19.11316 -19.10267 -19.09805
 Alpha  occ. eigenvalues --  -19.08513 -19.08458 -19.07456 -19.07415 -19.06368
 Alpha  occ. eigenvalues --  -19.05559 -19.05485 -19.05329 -19.04775 -19.04703
 Alpha  occ. eigenvalues --  -19.04175 -19.04160 -19.03703 -19.03701 -15.42854
 Alpha  occ. eigenvalues --  -14.57718 -14.39858 -14.37407 -14.37386 -14.37101
 Alpha  occ. eigenvalues --  -14.36279 -14.34576 -14.33841 -14.32330 -14.31761
 Alpha  occ. eigenvalues --  -14.31491 -14.31217 -14.30623 -14.30287 -14.30010
 Alpha  occ. eigenvalues --  -12.56483 -12.56427 -12.56403 -10.34547 -10.32456
 Alpha  occ. eigenvalues --  -10.31162 -10.30242 -10.30048 -10.28605 -10.28360
 Alpha  occ. eigenvalues --  -10.27439 -10.26932 -10.26378 -10.26014 -10.26002
 Alpha  occ. eigenvalues --  -10.25514 -10.25067 -10.25058 -10.24538 -10.24435
 Alpha  occ. eigenvalues --  -10.24260 -10.24190 -10.23661 -10.23558 -10.23501
 Alpha  occ. eigenvalues --  -10.23479 -10.23436 -10.23434 -10.23019 -10.22927
 Alpha  occ. eigenvalues --  -10.22252 -10.22218 -10.21791 -10.20846 -10.20805
 Alpha  occ. eigenvalues --  -10.20391 -10.20115 -10.19760 -10.19529 -10.19373
 Alpha  occ. eigenvalues --  -10.19199 -10.18932 -10.18666 -10.18536 -10.18506
 Alpha  occ. eigenvalues --  -10.18397 -10.18342 -10.18120 -10.17710 -10.17670
 Alpha  occ. eigenvalues --  -10.17615 -10.17543 -10.17513 -10.17229 -10.17187
 Alpha  occ. eigenvalues --  -10.15977 -10.14762  -1.79788  -1.13093  -1.07720
 Alpha  occ. eigenvalues --   -1.07569  -1.07241  -1.07154  -1.05513  -1.05326
 Alpha  occ. eigenvalues --   -1.04532  -1.04442  -1.04364  -1.03105  -1.03035
 Alpha  occ. eigenvalues --   -1.01302  -1.01005  -1.00876  -1.00441  -0.99377
 Alpha  occ. eigenvalues --   -0.99131  -0.98881  -0.98803  -0.98699  -0.98112
 Alpha  occ. eigenvalues --   -0.97534  -0.96767  -0.96748  -0.94169  -0.93919
 Alpha  occ. eigenvalues --   -0.93451  -0.93173  -0.92007  -0.91193  -0.90551
 Alpha  occ. eigenvalues --   -0.90118  -0.89294  -0.88994  -0.88846  -0.88655
 Alpha  occ. eigenvalues --   -0.88024  -0.87894  -0.87693  -0.86898  -0.86134
 Alpha  occ. eigenvalues --   -0.83540  -0.82517  -0.81805  -0.81033  -0.79693
 Alpha  occ. eigenvalues --   -0.78274  -0.77763  -0.77392  -0.76811  -0.76670
 Alpha  occ. eigenvalues --   -0.75292  -0.74441  -0.73928  -0.73050  -0.72330
 Alpha  occ. eigenvalues --   -0.72285  -0.72246  -0.71444  -0.70339  -0.70278
 Alpha  occ. eigenvalues --   -0.69736  -0.69245  -0.68705  -0.67438  -0.67384
 Alpha  occ. eigenvalues --   -0.66874  -0.65997  -0.65728  -0.64503  -0.64062
 Alpha  occ. eigenvalues --   -0.63731  -0.63261  -0.62440  -0.61724  -0.61474
 Alpha  occ. eigenvalues --   -0.61228  -0.61061  -0.60875  -0.60601  -0.60351
 Alpha  occ. eigenvalues --   -0.59718  -0.59335  -0.58449  -0.58371  -0.57801
 Alpha  occ. eigenvalues --   -0.57500  -0.57296  -0.57094  -0.56001  -0.55880
 Alpha  occ. eigenvalues --   -0.55599  -0.55283  -0.55051  -0.54885  -0.54411
 Alpha  occ. eigenvalues --   -0.53845  -0.53703  -0.53612  -0.53438  -0.53412
 Alpha  occ. eigenvalues --   -0.53245  -0.53015  -0.52766  -0.52236  -0.51891
 Alpha  occ. eigenvalues --   -0.51092  -0.50871  -0.50714  -0.49636  -0.49458
 Alpha  occ. eigenvalues --   -0.49316  -0.49077  -0.48825  -0.48672  -0.48364
 Alpha  occ. eigenvalues --   -0.48288  -0.48206  -0.48004  -0.47954  -0.47389
 Alpha  occ. eigenvalues --   -0.47161  -0.46983  -0.46815  -0.46599  -0.46508
 Alpha  occ. eigenvalues --   -0.46081  -0.45805  -0.45644  -0.45566  -0.45510
 Alpha  occ. eigenvalues --   -0.45172  -0.45109  -0.44903  -0.44561  -0.44300
 Alpha  occ. eigenvalues --   -0.44294  -0.44104  -0.43960  -0.43791  -0.43767
 Alpha  occ. eigenvalues --   -0.43466  -0.43342  -0.43120  -0.42858  -0.42805
 Alpha  occ. eigenvalues --   -0.42673  -0.42486  -0.42349  -0.42190  -0.41972
 Alpha  occ. eigenvalues --   -0.41786  -0.41642  -0.41612  -0.41310  -0.41275
 Alpha  occ. eigenvalues --   -0.41097  -0.41042  -0.40909  -0.40768  -0.40457
 Alpha  occ. eigenvalues --   -0.40330  -0.40290  -0.40185  -0.40137  -0.40029
 Alpha  occ. eigenvalues --   -0.39847  -0.39755  -0.39529  -0.39322  -0.39241
 Alpha  occ. eigenvalues --   -0.39068  -0.38996  -0.38850  -0.38807  -0.38669
 Alpha  occ. eigenvalues --   -0.38639  -0.38463  -0.38411  -0.38128  -0.38026
 Alpha  occ. eigenvalues --   -0.37905  -0.37839  -0.37523  -0.37467  -0.37440
 Alpha  occ. eigenvalues --   -0.37396  -0.37224  -0.36963  -0.36542  -0.36488
 Alpha  occ. eigenvalues --   -0.36183  -0.36083  -0.35953  -0.35869  -0.35452
 Alpha  occ. eigenvalues --   -0.35166  -0.35129  -0.34907  -0.34699  -0.34540
 Alpha  occ. eigenvalues --   -0.34299  -0.34143  -0.33949  -0.33705  -0.33604
 Alpha  occ. eigenvalues --   -0.33345  -0.33330  -0.33015  -0.32869  -0.32785
 Alpha  occ. eigenvalues --   -0.32707  -0.32577  -0.32172  -0.32121  -0.31804
 Alpha  occ. eigenvalues --   -0.31726  -0.31569  -0.31148  -0.30679  -0.29899
 Alpha  occ. eigenvalues --   -0.29665  -0.28975  -0.28776  -0.28173  -0.28010
 Alpha  occ. eigenvalues --   -0.27999  -0.27308  -0.27271  -0.27036  -0.26514
 Alpha  occ. eigenvalues --   -0.25978  -0.25658  -0.25234  -0.24887  -0.24519
 Alpha  occ. eigenvalues --   -0.24374  -0.24243  -0.24047  -0.23754  -0.23475
 Alpha  occ. eigenvalues --   -0.23230  -0.23044  -0.22668  -0.22497  -0.22355
 Alpha  occ. eigenvalues --   -0.22186  -0.22000  -0.21850  -0.21765  -0.21418
 Alpha  occ. eigenvalues --   -0.20819  -0.20525  -0.20147  -0.19835  -0.19704
 Alpha  occ. eigenvalues --   -0.19583  -0.19394  -0.19182
 Alpha virt. eigenvalues --   -0.09595  -0.03766  -0.03196  -0.03115  -0.02633
 Alpha virt. eigenvalues --   -0.01022  -0.00382  -0.00268   0.00107   0.00173
 Alpha virt. eigenvalues --    0.00877   0.01560   0.01842   0.01990   0.02252

 Mulliken charges:
               1
     1  C    0.081395
     2  C    0.018808
     3  O   -0.294510
     4  H    0.051168
     5  H   -0.012469
     6  H    0.034981
     7  N   -0.125544
     8  C    0.120872
     9  C    0.054974
    10  O   -0.307813
    11  C    0.062665
    12  C    0.151176
    13  O   -0.388666
    14  O   -0.453715
    15  H    0.115917
    16  H   -0.003066
    17  H    0.018081
    18  H    0.004958
    19  N   -0.132701
    20  C    0.167391
    21  C    0.086977
    22  O   -0.303460
    23  C   -0.006310
    24  C   -0.031704
    25  C   -0.027821
    26  C    0.063143
    27  N    0.072654
    28  H    0.156737
    29  H   -0.006180
    30  H    0.034986
    31  H    0.026656
    32  H    0.007167
    33  H   -0.029475
    34  H    0.033670
    35  H    0.074761
    36  H    0.069817
    37  H    0.081334
    38  H    0.197241
    39  H    0.183654
    40  H    0.179264
    41  N   -0.178423
    42  C    0.101187
    43  C    0.041462
    44  O   -0.292699
    45  C    0.155382
    46  C    0.082296
    47  O   -0.470325
    48  O   -0.368330
    49  H    0.181121
    50  H    0.017706
    51  H   -0.047499
    52  H    0.008963
    53  N   -0.156448
    54  C    0.230020
    55  C    0.050967
    56  O   -0.293327
    57  H    0.143978
    58  H    0.019959
    59  H    0.028643
    60  N   -0.153435
    61  C    0.148222
    62  C    0.043205
    63  O   -0.308223
    64  C    0.048421
    65  C    0.101871
    66  N   -0.067922
    67  O   -0.342684
    68  H    0.150882
    69  H    0.020143
    70  H    0.068124
    71  H    0.019120
    72  H    0.125303
    73  H    0.106796
    74  N   -0.162380
    75  C    0.238089
    76  C    0.014135
    77  O   -0.300668
    78  H    0.145226
    79  H    0.038761
    80  H    0.028763
    81  N   -0.127347
    82  C    0.150343
    83  C    0.127665
    84  O   -0.360343
    85  C    0.091954
    86  C    0.018624
    87  C    0.040837
    88  C   -0.023786
    89  C   -0.006749
    90  C   -0.045537
    91  C    0.155844
    92  O   -0.211041
    93  H    0.145224
    94  H   -0.016296
    95  H   -0.014398
    96  H   -0.025123
    97  H   -0.031837
    98  H   -0.043409
    99  H   -0.022449
   100  H   -0.041286
   101  H    0.177529
   102  N   -0.100051
   103  C    0.158213
   104  C    0.056832
   105  O   -0.278275
   106  C   -0.116793
   107  C   -0.003588
   108  C    0.067645
   109  C    0.027949
   110  H    0.139087
   111  H    0.004556
   112  H   -0.008688
   113  H   -0.019978
   114  H    0.019236
   115  H    0.020554
   116  H    0.005371
   117  H    0.007579
   118  H    0.011133
   119  H    0.001420
   120  H    0.009010
   121  N   -0.129838
   122  C    0.047439
   123  C    0.133384
   124  O   -0.272539
   125  C    0.273672
   126  O   -0.352844
   127  H    0.147020
   128  H    0.012410
   129  H   -0.014123
   130  H   -0.024669
   131  H    0.160695
   132  N   -0.113672
   133  C    0.114072
   134  C    0.063587
   135  O   -0.245643
   136  C    0.016170
   137  H    0.122948
   138  H    0.014143
   139  H    0.009437
   140  H    0.023471
   141  H    0.032433
   142  N   -0.159131
   143  C    0.081714
   144  C    0.084274
   145  O   -0.288849
   146  C    0.024347
   147  H    0.123323
   148  H    0.016420
   149  H    0.012417
   150  H    0.010556
   151  H    0.022723
   152  N   -0.154917
   153  C    0.195052
   154  C    0.072527
   155  O   -0.303541
   156  C   -0.116439
   157  C    0.153092
   158  C    0.159022
   159  O   -0.422975
   160  O   -0.435531
   161  H    0.129203
   162  H   -0.024828
   163  H    0.049204
   164  H    0.039158
   165  H   -0.006077
   166  H   -0.020276
   167  N   -0.147619
   168  C    0.153653
   169  H    0.021185
   170  H    0.016552
   171  H   -0.001147
   172  H    0.132453
   173  Ca   1.285044
   174  O   -0.269203
   175  H    0.192203
   176  H    0.175837
 Sum of Mulliken charges =   0.00000

 Dipole moment (field-independent basis, Debye):
    X=             27.9664    Y=              2.9547    Z=            -17.1987  Tot=             32.9643
 Quadrupole moment (field-independent basis, Debye-Ang):
   XX=           -623.9001   YY=           -431.9640   ZZ=           -491.8029
   XY=            120.2731   XZ=            -28.4608   YZ=            -27.4602

 ESP charges:
               1
     1  C   -0.444215
     2  C    0.821726
     3  O   -0.647194
     4  H    0.147387
     5  H    0.072088
     6  H    0.132402
     7  N   -0.715396
     8  C    0.077977
     9  C    0.614989
    10  O   -0.572268
    11  C   -0.270226
    12  C    0.973347
    13  O   -0.744776
    14  O   -0.894603
    15  H    0.372682
    16  H    0.106427
    17  H    0.077858
    18  H    0.050504
    19  N   -0.136393
    20  C   -0.506586
    21  C    0.794244
    22  O   -0.606337
    23  C    0.228901
    24  C   -0.175791
    25  C    0.053201
    26  C   -0.055456
    27  N   -0.302053
    28  H    0.076403
    29  H    0.175565
    30  H    0.000870
    31  H    0.055126
    32  H    0.052414
    33  H    0.024634
    34  H    0.010035
    35  H    0.055418
    36  H    0.100306
    37  H    0.112324
    38  H    0.317902
    39  H    0.310214
    40  H    0.323331
    41  N   -0.641083
    42  C    0.080450
    43  C    0.479952
    44  O   -0.554556
    45  C   -0.191542
    46  C    0.773814
    47  O   -0.780135
    48  O   -0.715420
    49  H    0.472576
    50  H    0.097081
    51  H    0.030400
    52  H    0.060809
    53  N   -0.250813
    54  C   -0.227859
    55  C    0.561908
    56  O   -0.572123
    57  H    0.217084
    58  H    0.127881
    59  H    0.130826
    60  N   -0.262494
    61  C    0.001372
    62  C    0.435353
    63  O   -0.578479
    64  C   -0.228085
    65  C    0.605080
    66  N   -0.692727
    67  O   -0.588115
    68  H    0.219833
    69  H    0.114007
    70  H    0.115751
    71  H    0.093786
    72  H    0.336732
    73  H    0.307015
    74  N   -0.035085
    75  C   -0.273324
    76  C    0.732366
    77  O   -0.585935
    78  H    0.196067
    79  H    0.154858
    80  H    0.087546
    81  N   -0.602564
    82  C    0.276576
    83  C    0.656220
    84  O   -0.614981
    85  C    0.283663
    86  C   -0.261505
    87  C    0.159825
    88  C   -0.170362
    89  C   -0.393903
    90  C   -0.244534
    91  C    0.389929
    92  O   -0.528675
    93  H    0.197267
    94  H   -0.013794
    95  H   -0.070209
    96  H   -0.058361
    97  H    0.038953
    98  H    0.175410
    99  H    0.191051
   100  H    0.124263
   101  H    0.384929
   102  N   -0.677216
   103  C   -0.084530
   104  C    0.753640
   105  O   -0.588097
   106  C    0.113734
   107  C    0.354141
   108  C   -0.259758
   109  C   -0.393288
   110  H    0.339244
   111  H    0.103645
   112  H    0.007672
   113  H   -0.045312
   114  H   -0.054134
   115  H    0.014164
   116  H    0.082315
   117  H    0.061943
   118  H    0.094775
   119  H    0.075258
   120  H    0.067343
   121  N   -0.405644
   122  C   -0.238139
   123  C    0.753899
   124  O   -0.537556
   125  C    0.272355
   126  O   -0.647851
   127  H    0.310476
   128  H    0.081915
   129  H    0.001521
   130  H    0.025074
   131  H    0.409170
   132  N   -0.669207
   133  C    0.331332
   134  C    0.346396
   135  O   -0.511913
   136  C   -0.349205
   137  H    0.336599
   138  H    0.039888
   139  H    0.074905
   140  H    0.110455
   141  H    0.105056
   142  N   -0.239206
   143  C   -0.096169
   144  C    0.456066
   145  O   -0.538709
   146  C   -0.291357
   147  H    0.258800
   148  H    0.144628
   149  H    0.083275
   150  H    0.083796
   151  H    0.106827
   152  N   -0.074492
   153  C   -0.375293
   154  C    0.651342
   155  O   -0.577384
   156  C    0.206124
   157  C   -0.354578
   158  C    0.927496
   159  O   -0.790678
   160  O   -0.810270
   161  H    0.126144
   162  H    0.131929
   163  H    0.045832
   164  H   -0.015761
   165  H    0.065858
   166  H    0.096602
   167  N   -0.202253
   168  C   -0.224073
   169  H    0.107112
   170  H    0.077276
   171  H    0.088117
   172  H    0.242063
   173  Ca   1.577432
   174  O   -0.700643
   175  H    0.403134
   176  H    0.364996
 Sum of ESP charges =   0.00000

 Normal termination of Gaussian 09 at Mon Sep 16 13:35:04 2019.
