 Gaussian 09, Revision D.01,
 Gaussian 09:  ES64L-G09RevD.01 24-Apr-2013

 ----------------------------------------------------------------------
 #maxdisk=50GB #B3LYP/SVP Density=Current scf=(tight) #IOP(5/87=12)Pop=
 (MK,readradii) iop(6/33=2) iop(6/42=6)
 ----------------------------------------------------------------------

 ------------
 SOL molecule
 ------------
 Symbolic Z-matrix:
 Charge =  0 Multiplicity = 1

                         Standard orientation:
 ---------------------------------------------------------------------
 Center     Atomic      Atomic             Coordinates (Angstroms)
 Number     Number       Type             X           Y           Z
 ---------------------------------------------------------------------
      1          6           0        2.122963    1.181094    5.734267
      2          6           0        1.551482    1.220200    4.332703
      3          8           0        2.274001    0.975553    3.357811
      4          1           0        2.682532    2.097152    5.923220
      5          1           0        1.310228    1.096942    6.455969
      6          1           0        2.787594    0.322901    5.832404
      7          7           0        0.264823    1.533462    4.179483
      8          6           0       -0.444223    1.702686    2.931037
      9          6           0       -0.345763    3.156929    2.475974
     10          8           0       -0.798974    4.086816    3.132716
     11          6           0       -1.882343    1.216897    3.088262
     12          6           0       -2.681029    1.249734    1.795505
     13          8           0       -3.888424    0.931257    1.738318
     14          8           0       -2.109694    1.701052    0.778456
     15          1           0       -0.346216    1.843173    4.924942
     16          1           0       -0.020012    1.095509    2.138584
     17          1           0       -2.400644    1.878624    3.790318
     18          1           0       -1.879393    0.192807    3.451761
     19          7           0        0.343993    3.378301    1.358418
     20          6           0        0.722699    4.681721    0.850306
     21          6           0       -0.396263    5.424366    0.151092
     22          8           0       -0.378353    6.658555    0.209047
     23          6           0        1.955132    4.474157   -0.024524
     24          6           0        2.914129    5.644361    0.161349
     25          6           0        4.102169    5.391845   -0.767411
     26          6           0        5.084660    6.558089   -0.747768
     27          7           0        6.335911    6.324399   -1.480952
     28          1           0        0.610785    2.599991    0.776994
     29          1           0        1.042566    5.255160    1.724063
     30          1           0        1.682945    4.504459   -1.079178
     31          1           0        2.464969    3.546172    0.247707
     32          1           0        3.257395    5.659008    1.197908
     33          1           0        2.413804    6.541309   -0.194823
     34          1           0        3.785843    5.228499   -1.791206
     35          1           0        4.586861    4.462718   -0.447573
     36          1           0        5.326135    6.695271    0.309385
     37          1           0        4.571517    7.382479   -1.240582
     38          1           0        6.772602    5.432081   -1.296912
     39          1           0        6.159359    6.361269   -2.480737
     40          1           0        6.969005    7.104948   -1.354720
     41          7           0       -1.247738    4.730225   -0.607235
     42          6           0       -2.372448    5.391730   -1.221107
     43          6           0       -3.609645    5.191775   -0.343862
     44          8           0       -4.461196    6.076319   -0.463631
     45          6           0       -2.665521    4.900621   -2.641678
     46          6           0       -2.885142    3.439287   -3.000660
     47          8           0       -2.555286    2.651436   -2.087049
     48          8           0       -3.124076    3.192502   -4.204034
     49          1           0       -1.113166    3.731436   -0.642027
     50          1           0       -2.313192    6.480841   -1.256121
     51          1           0       -1.787938    5.203782   -3.210661
     52          1           0       -3.480576    5.506505   -3.045025
     53          7           0       -3.716142    4.214323    0.551094
     54          6           0       -4.962653    3.916064    1.219415
     55          6           0       -5.912440    2.976269    0.470490
     56          8           0       -7.123890    3.110983    0.522851
     57          1           0       -2.938304    3.574976    0.658815
     58          1           0       -5.553556    4.827992    1.307282
     59          1           0       -4.731798    3.558340    2.221283
     60          7           0       -5.411701    2.114646   -0.415776
     61          6           0       -6.245171    1.217840   -1.175754
     62          6           0       -6.689840   -0.021117   -0.396360
     63          8           0       -7.700141   -0.567689   -0.831736
     64          6           0       -5.599372    0.898305   -2.516441
     65          6           0       -4.630521   -0.269627   -2.490650
     66          7           0       -4.800464   -1.344138   -3.274133
     67          8           0       -3.608570   -0.295433   -1.806582
     68          1           0       -4.419848    2.086221   -0.646687
     69          1           0       -7.227000    1.653211   -1.364599
     70          1           0       -5.167911    1.788622   -2.981390
     71          1           0       -6.361355    0.464360   -3.166651
     72          1           0       -5.631161   -1.523114   -3.809586
     73          1           0       -4.075527   -2.043597   -3.269310
     74          7           0       -5.977683   -0.478341    0.624168
     75          6           0       -6.351428   -1.610801    1.460379
     76          6           0       -5.284436   -2.689449    1.590557
     77          8           0       -5.532030   -3.746264    2.148625
     78          1           0       -5.164238    0.036930    0.938019
     79          1           0       -7.280493   -2.092163    1.174498
     80          1           0       -6.530641   -1.226336    2.463010
     81          7           0       -4.128142   -2.442574    0.976282
     82          6           0       -3.019462   -3.353557    0.785913
     83          6           0       -1.637942   -2.710532    0.879832
     84          8           0       -1.450837   -1.577336    0.461789
     85          6           0       -3.203101   -4.123047   -0.520518
     86          6           0       -4.554586   -4.761403   -0.678281
     87          6           0       -4.736435   -6.002390   -0.054197
     88          6           0       -5.607643   -4.171083   -1.403052
     89          6           0       -5.976391   -6.657301   -0.052627
     90          6           0       -6.823840   -4.854124   -1.505136
     91          6           0       -6.982511   -6.100501   -0.875242
     92          8           0       -8.141136   -6.763525   -1.171194
     93          1           0       -4.036380   -1.625829    0.386868
     94          1           0       -3.108340   -4.043249    1.619354
     95          1           0       -2.446486   -4.906130   -0.444256
     96          1           0       -3.035181   -3.511692   -1.414916
     97          1           0       -3.881447   -6.496911    0.379213
     98          1           0       -5.526079   -3.244544   -1.953209
     99          1           0       -6.032612   -7.712039    0.157055
    100          1           0       -7.606629   -4.261212   -1.963171
    101          1           0       -8.729838   -6.166724   -1.625351
    102          7           0       -0.633433   -3.433619    1.382531
    103          6           0        0.748655   -3.000123    1.400308
    104          6           0        1.604602   -3.949028    0.565123
    105          8           0        1.653518   -5.152759    0.767948
    106          6           0        1.375856   -2.926104    2.787802
    107          6           0        0.404529   -2.278774    3.769070
    108          6           0        2.645809   -2.105338    2.923681
    109          6           0        0.632075   -2.847312    5.173736
    110          1           0       -0.833112   -4.284439    1.888924
    111          1           0        0.835067   -1.971132    1.046315
    112          1           0        1.534198   -3.904586    3.244968
    113          1           0       -0.657881   -2.360945    3.542062
    114          1           0        0.581321   -1.211510    3.881732
    115          1           0        2.440532   -1.093336    2.564358
    116          1           0        3.126067   -2.104674    3.899925
    117          1           0        3.423813   -2.574488    2.310893
    118          1           0        1.664710   -2.856243    5.538271
    119          1           0       -0.036464   -2.282968    5.834017
    120          1           0        0.315902   -3.883668    5.198251
    121          7           0        2.331759   -3.382165   -0.398365
    122          6           0        3.352901   -3.998226   -1.222341
    123          6           0        4.767832   -3.738791   -0.739781
    124          8           0        5.045406   -2.886215    0.114132
    125          6           0        3.160269   -3.577147   -2.679319
    126          8           0        3.227631   -2.169240   -2.691905
    127          1           0        2.192347   -2.392433   -0.576398
    128          1           0        3.212682   -5.083324   -1.290908
    129          1           0        2.288350   -4.046168   -3.130070
    130          1           0        4.058478   -3.922453   -3.192042
    131          1           0        3.369848   -1.884259   -3.597201
    132          7           0        5.683069   -4.526277   -1.300323
    133          6           0        7.098045   -4.334636   -1.035717
    134          6           0        7.514669   -2.889723   -1.236841
    135          8           0        8.191285   -2.404710   -0.336423
    136          6           0        7.916301   -5.288018   -1.914022
    137          1           0        5.427088   -5.284175   -1.911605
    138          1           0        7.167618   -4.633036    0.010523
    139          1           0        7.712119   -5.085953   -2.960148
    140          1           0        8.974941   -5.155931   -1.677306
    141          1           0        7.592421   -6.318652   -1.767409
    142          7           0        7.110849   -2.305004   -2.370831
    143          6           0        7.470798   -0.932550   -2.654038
    144          6           0        7.005637    0.081960   -1.612984
    145          8           0        7.557050    1.168730   -1.444831
    146          6           0        6.901838   -0.623942   -4.039407
    147          1           0        6.644479   -2.833423   -3.100332
    148          1           0        8.555897   -0.937482   -2.753218
    149          1           0        5.821250   -0.690951   -4.145420
    150          1           0        7.176014    0.412799   -4.205824
    151          1           0        7.305788   -1.322127   -4.783827
    152          7           0        5.944122   -0.235960   -0.874735
    153          6           0        5.364601    0.617567    0.146170
    154          6           0        5.885247    0.406601    1.556674
    155          8           0        6.284351    1.369387    2.200148
    156          6           0        3.841356    0.613869    0.160769
    157          6           0        3.169754    1.029659   -1.146009
    158          6           0        1.650814    0.989967   -1.027075
    159          8           0        1.046048    0.045034   -0.472224
    160          8           0        0.968846    1.942380   -1.450548
    161          1           0        5.490753   -1.115167   -1.103758
    162          1           0        5.576100    1.649405   -0.101779
    163          1           0        3.542655    1.200437    1.035820
    164          1           0        3.453213   -0.352731    0.468223
    165          1           0        3.406992    0.311088   -1.932757
    166          1           0        3.534720    2.001650   -1.459274
    167          7           0        6.147177   -0.813124    2.048064
    168          6           0        6.861951   -1.150256    3.255598
    169          1           0        7.802916   -0.600912    3.285150
    170          1           0        6.257990   -0.883096    4.122666
    171          1           0        7.066045   -2.220698    3.271141
    172          1           0        6.104157   -1.536528    1.342135
    173         20           0       -1.300394    0.596829   -1.305489
    174          8           0       -1.377564    1.166590   -3.945625
    175          1           0       -1.978528    1.908847   -3.854536
    176          1           0       -1.409063    0.947911   -4.883328
 ---------------------------------------------------------------------

 SCF Done:  E(RB3LYP) =  -5333.59965374     A.U. after   17 cycles

 The electronic state is 1-A.
 Alpha  occ. eigenvalues -- -145.36396 -19.19062 -19.14639 -19.14590 -19.12817
 Alpha  occ. eigenvalues --  -19.11950 -19.11843 -19.10908 -19.10495 -19.10279
 Alpha  occ. eigenvalues --  -19.08269 -19.07841 -19.07661 -19.06875 -19.06771
 Alpha  occ. eigenvalues --  -19.06415 -19.06023 -19.05876 -19.05831 -19.05072
 Alpha  occ. eigenvalues --  -19.04842 -19.04286 -19.03680 -19.03057 -15.42186
 Alpha  occ. eigenvalues --  -14.58113 -14.40368 -14.39774 -14.37166 -14.37026
 Alpha  occ. eigenvalues --  -14.36583 -14.35946 -14.34425 -14.32832 -14.32390
 Alpha  occ. eigenvalues --  -14.32341 -14.31737 -14.30757 -14.29531 -14.29429
 Alpha  occ. eigenvalues --  -12.55802 -12.55766 -12.55723 -10.34004 -10.32820
 Alpha  occ. eigenvalues --  -10.31526 -10.30657 -10.30243 -10.29648 -10.28848
 Alpha  occ. eigenvalues --  -10.28836 -10.27332 -10.27140 -10.26970 -10.26708
 Alpha  occ. eigenvalues --  -10.26690 -10.25813 -10.25748 -10.25529 -10.25242
 Alpha  occ. eigenvalues --  -10.24911 -10.24716 -10.24325 -10.23951 -10.23849
 Alpha  occ. eigenvalues --  -10.23578 -10.23243 -10.23104 -10.22896 -10.22519
 Alpha  occ. eigenvalues --  -10.22460 -10.21933 -10.21877 -10.21006 -10.20565
 Alpha  occ. eigenvalues --  -10.20435 -10.19609 -10.19422 -10.19369 -10.19159
 Alpha  occ. eigenvalues --  -10.18978 -10.18686 -10.18447 -10.18337 -10.18106
 Alpha  occ. eigenvalues --  -10.18060 -10.18038 -10.17896 -10.17877 -10.17539
 Alpha  occ. eigenvalues --  -10.17439 -10.17014 -10.16641 -10.16536 -10.16437
 Alpha  occ. eigenvalues --  -10.15384 -10.14117  -1.79156  -1.13231  -1.07885
 Alpha  occ. eigenvalues --   -1.07046  -1.06972  -1.06817  -1.06545  -1.05591
 Alpha  occ. eigenvalues --   -1.05084  -1.04815  -1.03581  -1.03541  -1.03506
 Alpha  occ. eigenvalues --   -1.03166  -1.00992  -1.00320  -1.00277  -1.00208
 Alpha  occ. eigenvalues --   -0.99968  -0.99846  -0.98769  -0.98475  -0.97601
 Alpha  occ. eigenvalues --   -0.97373  -0.96754  -0.96495  -0.96197  -0.93629
 Alpha  occ. eigenvalues --   -0.93387  -0.92345  -0.92265  -0.91263  -0.90811
 Alpha  occ. eigenvalues --   -0.90742  -0.90608  -0.90149  -0.89714  -0.88504
 Alpha  occ. eigenvalues --   -0.88361  -0.87829  -0.87790  -0.86698  -0.85591
 Alpha  occ. eigenvalues --   -0.83629  -0.83472  -0.81533  -0.80746  -0.80723
 Alpha  occ. eigenvalues --   -0.79169  -0.78768  -0.78039  -0.76718  -0.76173
 Alpha  occ. eigenvalues --   -0.74801  -0.74243  -0.73416  -0.73380  -0.72968
 Alpha  occ. eigenvalues --   -0.72282  -0.72184  -0.71540  -0.71076  -0.70799
 Alpha  occ. eigenvalues --   -0.69986  -0.69511  -0.68979  -0.68294  -0.68021
 Alpha  occ. eigenvalues --   -0.67200  -0.67006  -0.65518  -0.64964  -0.64101
 Alpha  occ. eigenvalues --   -0.63739  -0.63654  -0.62565  -0.62022  -0.61618
 Alpha  occ. eigenvalues --   -0.61566  -0.61185  -0.60742  -0.60429  -0.60015
 Alpha  occ. eigenvalues --   -0.59781  -0.59595  -0.59164  -0.58275  -0.58075
 Alpha  occ. eigenvalues --   -0.57526  -0.56800  -0.56644  -0.56624  -0.56000
 Alpha  occ. eigenvalues --   -0.55878  -0.55822  -0.55422  -0.55328  -0.54878
 Alpha  occ. eigenvalues --   -0.54815  -0.54583  -0.54014  -0.53744  -0.53502
 Alpha  occ. eigenvalues --   -0.53203  -0.52707  -0.52396  -0.51890  -0.51493
 Alpha  occ. eigenvalues --   -0.51438  -0.51247  -0.50678  -0.50467  -0.50097
 Alpha  occ. eigenvalues --   -0.49813  -0.49629  -0.49108  -0.48639  -0.48608
 Alpha  occ. eigenvalues --   -0.48323  -0.48161  -0.48144  -0.47745  -0.47415
 Alpha  occ. eigenvalues --   -0.47283  -0.47233  -0.47051  -0.46651  -0.46501
 Alpha  occ. eigenvalues --   -0.46291  -0.46137  -0.46048  -0.45953  -0.45593
 Alpha  occ. eigenvalues --   -0.45456  -0.45374  -0.45206  -0.44802  -0.44710
 Alpha  occ. eigenvalues --   -0.44367  -0.44345  -0.44260  -0.44127  -0.43946
 Alpha  occ. eigenvalues --   -0.43668  -0.43454  -0.43282  -0.43156  -0.42947
 Alpha  occ. eigenvalues --   -0.42652  -0.42592  -0.42523  -0.42367  -0.42339
 Alpha  occ. eigenvalues --   -0.42253  -0.42126  -0.41882  -0.41731  -0.41703
 Alpha  occ. eigenvalues --   -0.41565  -0.41482  -0.41174  -0.41088  -0.40918
 Alpha  occ. eigenvalues --   -0.40645  -0.40446  -0.40261  -0.40191  -0.40004
 Alpha  occ. eigenvalues --   -0.39921  -0.39681  -0.39609  -0.39530  -0.39478
 Alpha  occ. eigenvalues --   -0.39296  -0.39230  -0.39102  -0.38846  -0.38733
 Alpha  occ. eigenvalues --   -0.38549  -0.38425  -0.38377  -0.38246  -0.38171
 Alpha  occ. eigenvalues --   -0.38026  -0.37914  -0.37772  -0.37737  -0.37587
 Alpha  occ. eigenvalues --   -0.37536  -0.36956  -0.36799  -0.36393  -0.36293
 Alpha  occ. eigenvalues --   -0.36200  -0.36137  -0.35728  -0.35598  -0.35506
 Alpha  occ. eigenvalues --   -0.35339  -0.35281  -0.34898  -0.34722  -0.34689
 Alpha  occ. eigenvalues --   -0.34550  -0.34478  -0.34248  -0.34054  -0.33899
 Alpha  occ. eigenvalues --   -0.33637  -0.32907  -0.32842  -0.32737  -0.32667
 Alpha  occ. eigenvalues --   -0.32462  -0.32291  -0.31659  -0.31551  -0.31326
 Alpha  occ. eigenvalues --   -0.31241  -0.30904  -0.30696  -0.30454  -0.30399
 Alpha  occ. eigenvalues --   -0.30076  -0.29636  -0.28986  -0.28724  -0.28118
 Alpha  occ. eigenvalues --   -0.27853  -0.27444  -0.27372  -0.27304  -0.27023
 Alpha  occ. eigenvalues --   -0.26366  -0.26059  -0.25751  -0.25482  -0.24835
 Alpha  occ. eigenvalues --   -0.24777  -0.24275  -0.24112  -0.23995  -0.23644
 Alpha  occ. eigenvalues --   -0.23577  -0.23457  -0.23414  -0.23040  -0.23015
 Alpha  occ. eigenvalues --   -0.22486  -0.22273  -0.22119  -0.21967  -0.21761
 Alpha  occ. eigenvalues --   -0.21216  -0.21040  -0.20901  -0.20620  -0.20376
 Alpha  occ. eigenvalues --   -0.18966  -0.18580  -0.18090
 Alpha virt. eigenvalues --   -0.10129  -0.04447  -0.03409  -0.03320  -0.03146
 Alpha virt. eigenvalues --   -0.01360  -0.01164  -0.00806  -0.00514  -0.00406
 Alpha virt. eigenvalues --   -0.00185   0.00116   0.00907   0.01511   0.01926

 Mulliken charges:
               1
     1  C    0.076444
     2  C    0.043005
     3  O   -0.297485
     4  H    0.044439
     5  H   -0.001381
     6  H    0.033275
     7  N   -0.123339
     8  C    0.089655
     9  C    0.075868
    10  O   -0.279312
    11  C    0.072468
    12  C    0.153778
    13  O   -0.360821
    14  O   -0.500777
    15  H    0.122291
    16  H   -0.001657
    17  H    0.019611
    18  H    0.014922
    19  N   -0.142752
    20  C    0.132479
    21  C    0.077172
    22  O   -0.298200
    23  C    0.052279
    24  C    0.005076
    25  C   -0.073274
    26  C    0.039892
    27  N    0.084578
    28  H    0.139993
    29  H   -0.000113
    30  H    0.015491
    31  H    0.015010
    32  H    0.021059
    33  H    0.026368
    34  H    0.014224
    35  H    0.040595
    36  H    0.077690
    37  H    0.073314
    38  H    0.205069
    39  H    0.183752
    40  H    0.191577
    41  N   -0.144554
    42  C    0.176173
    43  C    0.020320
    44  O   -0.297267
    45  C    0.061166
    46  C    0.202101
    47  O   -0.495437
    48  O   -0.404696
    49  H    0.144797
    50  H    0.012864
    51  H   -0.003721
    52  H    0.015227
    53  N   -0.162261
    54  C    0.243555
    55  C    0.034051
    56  O   -0.282562
    57  H    0.150619
    58  H    0.023494
    59  H    0.025058
    60  N   -0.148488
    61  C    0.126378
    62  C    0.021293
    63  O   -0.303837
    64  C    0.117047
    65  C    0.064696
    66  N   -0.034430
    67  O   -0.379512
    68  H    0.144978
    69  H    0.030649
    70  H    0.081495
    71  H   -0.018608
    72  H    0.135752
    73  H    0.134006
    74  N   -0.171506
    75  C    0.238311
    76  C    0.025022
    77  O   -0.278598
    78  H    0.150204
    79  H    0.038808
    80  H    0.027698
    81  N   -0.152643
    82  C    0.108114
    83  C    0.138015
    84  O   -0.322718
    85  C    0.161737
    86  C    0.010583
    87  C   -0.012271
    88  C   -0.016303
    89  C    0.038338
    90  C   -0.043591
    91  C    0.135472
    92  O   -0.195508
    93  H    0.132170
    94  H   -0.011918
    95  H   -0.018208
    96  H   -0.040713
    97  H   -0.034368
    98  H   -0.091622
    99  H   -0.013618
   100  H   -0.022717
   101  H    0.167001
   102  N   -0.119995
   103  C    0.127457
   104  C    0.080563
   105  O   -0.276788
   106  C   -0.108155
   107  C    0.003737
   108  C    0.040783
   109  C    0.011368
   110  H    0.134652
   111  H    0.039888
   112  H   -0.021053
   113  H   -0.010957
   114  H    0.006536
   115  H    0.078251
   116  H   -0.006162
   117  H   -0.008454
   118  H    0.006234
   119  H    0.004620
   120  H   -0.004767
   121  N   -0.127091
   122  C    0.088368
   123  C    0.114629
   124  O   -0.271145
   125  C    0.218242
   126  O   -0.290696
   127  H    0.149332
   128  H    0.020494
   129  H    0.028860
   130  H   -0.050764
   131  H    0.178174
   132  N   -0.137089
   133  C    0.093545
   134  C    0.060060
   135  O   -0.239677
   136  C    0.044453
   137  H    0.117713
   138  H    0.022684
   139  H   -0.006809
   140  H    0.053982
   141  H    0.028524
   142  N   -0.157412
   143  C    0.101080
   144  C    0.073807
   145  O   -0.296041
   146  C    0.026481
   147  H    0.117297
   148  H    0.023118
   149  H   -0.006483
   150  H    0.030454
   151  H    0.023866
   152  N   -0.138555
   153  C    0.194814
   154  C    0.056869
   155  O   -0.294663
   156  C   -0.075311
   157  C    0.163196
   158  C    0.086220
   159  O   -0.424355
   160  O   -0.405291
   161  H    0.130097
   162  H   -0.044316
   163  H    0.038427
   164  H    0.013575
   165  H   -0.021957
   166  H   -0.043365
   167  N   -0.161291
   168  C    0.148415
   169  H    0.017238
   170  H    0.023429
   171  H    0.010093
   172  H    0.133641
   173  Ca   1.307241
   174  O   -0.319379
   175  H    0.133410
   176  H    0.164328
 Sum of Mulliken charges =   0.00000

 Dipole moment (field-independent basis, Debye):
    X=             37.9605    Y=             -2.5269    Z=            -17.2066  Tot=             41.7547
 Quadrupole moment (field-independent basis, Debye-Ang):
   XX=           -561.8164   YY=           -499.2190   ZZ=           -506.5214
   XY=            144.5928   XZ=            -63.2857   YZ=              7.4048

 ESP charges:
               1
     1  C   -0.439412
     2  C    0.785808
     3  O   -0.596457
     4  H    0.132202
     5  H    0.087771
     6  H    0.129607
     7  N   -0.652221
     8  C   -0.051786
     9  C    0.739155
    10  O   -0.577980
    11  C   -0.383769
    12  C    0.875092
    13  O   -0.729749
    14  O   -0.662426
    15  H    0.363508
    16  H    0.104058
    17  H    0.123235
    18  H    0.100810
    19  N   -0.430314
    20  C   -0.311872
    21  C    0.620822
    22  O   -0.573366
    23  C    0.597231
    24  C   -0.554643
    25  C    0.420629
    26  C   -0.134866
    27  N   -0.299746
    28  H    0.213563
    29  H    0.144740
    30  H   -0.053504
    31  H   -0.070743
    32  H    0.122580
    33  H    0.112000
    34  H   -0.060457
    35  H   -0.063046
    36  H    0.108986
    37  H    0.109505
    38  H    0.321651
    39  H    0.303367
    40  H    0.321887
    41  N   -0.559362
    42  C    0.269942
    43  C    0.466084
    44  O   -0.555745
    45  C   -0.378680
    46  C    0.837810
    47  O   -0.699578
    48  O   -0.673726
    49  H    0.338884
    50  H    0.055014
    51  H    0.083971
    52  H    0.081758
    53  N   -0.230799
    54  C   -0.215057
    55  C    0.540158
    56  O   -0.567398
    57  H    0.183732
    58  H    0.123751
    59  H    0.115776
    60  N   -0.102600
    61  C    0.034791
    62  C    0.398636
    63  O   -0.557035
    64  C   -0.232381
    65  C    0.705258
    66  N   -0.817279
    67  O   -0.687630
    68  H   -0.002145
    69  H    0.099188
    70  H    0.114015
    71  H    0.070513
    72  H    0.386196
    73  H    0.384287
    74  N   -0.092651
    75  C   -0.177533
    76  C    0.684753
    77  O   -0.573843
    78  H    0.190679
    79  H    0.121494
    80  H    0.074489
    81  N   -0.637706
    82  C    0.411301
    83  C    0.502305
    84  O   -0.588271
    85  C   -0.128922
    86  C    0.004554
    87  C   -0.207970
    88  C   -0.119364
    89  C   -0.123230
    90  C   -0.372600
    91  C    0.398340
    92  O   -0.570472
    93  H    0.262675
    94  H    0.010988
    95  H    0.026864
    96  H    0.017533
    97  H    0.142567
    98  H    0.151017
    99  H    0.118807
   100  H    0.160772
   101  H    0.415835
   102  N   -0.569437
   103  C   -0.068799
   104  C    0.581216
   105  O   -0.563162
   106  C    0.226826
   107  C    0.144539
   108  C   -0.361094
   109  C   -0.355505
   110  H    0.309302
   111  H    0.198420
   112  H   -0.011922
   113  H   -0.004057
   114  H    0.064537
   115  H   -0.017164
   116  H    0.125106
   117  H    0.041444
   118  H    0.080004
   119  H    0.068159
   120  H    0.069988
   121  N   -0.348119
   122  C    0.100458
   123  C    0.447441
   124  O   -0.396006
   125  C    0.132296
   126  O   -0.554925
   127  H    0.193124
   128  H    0.043846
   129  H    0.055616
   130  H   -0.040787
   131  H    0.406364
   132  N   -0.444400
   133  C    0.135443
   134  C    0.514431
   135  O   -0.514655
   136  C   -0.358368
   137  H    0.296891
   138  H    0.078578
   139  H    0.070332
   140  H    0.129716
   141  H    0.118453
   142  N   -0.420222
   143  C    0.094821
   144  C    0.361396
   145  O   -0.541351
   146  C   -0.346670
   147  H    0.306213
   148  H    0.100201
   149  H    0.095859
   150  H    0.110779
   151  H    0.095806
   152  N    0.052284
   153  C   -0.247206
   154  C    0.550972
   155  O   -0.569632
   156  C    0.017727
   157  C    0.194520
   158  C    0.671216
   159  O   -0.763865
   160  O   -0.794825
   161  H    0.016629
   162  H    0.102421
   163  H    0.048437
   164  H    0.071483
   165  H   -0.068310
   166  H   -0.119804
   167  N   -0.089165
   168  C   -0.267498
   169  H    0.106221
   170  H    0.097474
   171  H    0.106199
   172  H    0.130237
   173  Ca   1.638470
   174  O   -0.847186
   175  H    0.366551
   176  H    0.411073
 Sum of ESP charges =   0.00000

 Normal termination of Gaussian 09 at Mon Sep 16 16:03:17 2019.
