 Gaussian 09, Revision D.01,
 Gaussian 09:  ES64L-G09RevD.01 24-Apr-2013

 ----------------------------------------------------------------------
 #maxdisk=50GB #B3LYP/SVP Density=Current scf=(tight) #IOP(5/87=12)Pop=
 (MK,readradii) iop(6/33=2) iop(6/42=6)
 ----------------------------------------------------------------------

 ------------
 SOL molecule
 ------------
 Symbolic Z-matrix:
 Charge =  0 Multiplicity = 1

                         Standard orientation:
 ---------------------------------------------------------------------
 Center     Atomic      Atomic             Coordinates (Angstroms)
 Number     Number       Type             X           Y           Z
 ---------------------------------------------------------------------
      1          6           0        2.135894    1.238119    5.813977
      2          6           0        1.551126    1.333357    4.412985
      3          8           0        2.328171    1.306576    3.452421
      4          1           0        3.202890    1.025946    5.747522
      5          1           0        1.985263    2.183139    6.335904
      6          1           0        1.640086    0.436345    6.361891
      7          7           0        0.237561    1.411801    4.227261
      8          6           0       -0.412634    1.595547    2.944107
      9          6           0       -0.352204    3.041373    2.482333
     10          8           0       -0.893643    3.882635    3.199566
     11          6           0       -1.855666    1.119103    3.067636
     12          6           0       -2.740138    1.268382    1.834743
     13          8           0       -2.272136    1.742020    0.781586
     14          8           0       -3.864071    0.730614    1.843754
     15          1           0       -0.347207    1.553561    5.036798
     16          1           0        0.023323    0.904835    2.216468
     17          1           0       -2.272802    1.538142    3.979231
     18          1           0       -1.724769    0.055292    3.282513
     19          7           0        0.428078    3.328439    1.445678
     20          6           0        0.938691    4.661297    1.186325
     21          6           0       -0.111952    5.509284    0.483710
     22          8           0       -0.476315    6.587523    0.941355
     23          6           0        2.255905    4.585324    0.409875
     24          6           0        3.006694    5.907181    0.353238
     25          6           0        4.166099    5.743135   -0.626287
     26          6           0        5.312326    6.749046   -0.478945
     27          7           0        6.234808    6.636883   -1.612015
     28          1           0        0.796269    2.555472    0.906830
     29          1           0        1.054428    5.155760    2.150437
     30          1           0        2.105698    4.296645   -0.629501
     31          1           0        2.810081    3.778525    0.907735
     32          1           0        3.373128    6.159809    1.341168
     33          1           0        2.462191    6.799052    0.046347
     34          1           0        3.669089    5.848160   -1.583653
     35          1           0        4.564588    4.728867   -0.600462
     36          1           0        5.839934    6.610987    0.459121
     37          1           0        4.968528    7.791560   -0.487134
     38          1           0        6.687693    5.743189   -1.488706
     39          1           0        5.749350    6.389792   -2.466518
     40          1           0        6.815195    7.458619   -1.632023
     41          7           0       -0.588280    5.002330   -0.657653
     42          6           0       -1.661547    5.611658   -1.412517
     43          6           0       -3.020780    5.456255   -0.741894
     44          8           0       -3.915458    6.283576   -0.902801
     45          6           0       -1.693952    5.119585   -2.860002
     46          6           0       -1.582751    3.627143   -3.082604
     47          8           0       -1.454093    3.264026   -4.277842
     48          8           0       -1.769963    2.748707   -2.217848
     49          1           0       -0.273918    4.072585   -0.920235
     50          1           0       -1.325511    6.641568   -1.575199
     51          1           0       -0.817881    5.495558   -3.389193
     52          1           0       -2.518554    5.644052   -3.365537
     53          7           0       -3.235554    4.361576   -0.006673
     54          6           0       -4.437491    4.096413    0.748864
     55          6           0       -5.447264    3.425727   -0.160058
     56          8           0       -6.331110    4.065695   -0.729231
     57          1           0       -2.451549    3.730296    0.047372
     58          1           0       -4.919276    4.971136    1.182156
     59          1           0       -4.248662    3.318085    1.489234
     60          7           0       -5.439734    2.097038   -0.278078
     61          6           0       -6.468802    1.306426   -0.929424
     62          6           0       -6.906615    0.014374   -0.241077
     63          8           0       -7.752555   -0.713284   -0.761653
     64          6           0       -5.938784    1.018297   -2.321352
     65          6           0       -4.778722    0.038081   -2.421010
     66          7           0       -4.728327   -0.733677   -3.507219
     67          8           0       -3.977749   -0.172405   -1.505893
     68          1           0       -4.814498    1.628383    0.365073
     69          1           0       -7.351452    1.940540   -0.999634
     70          1           0       -5.605101    1.866150   -2.922269
     71          1           0       -6.767962    0.613690   -2.912331
     72          1           0       -5.266080   -0.487438   -4.314924
     73          1           0       -4.139129   -1.561068   -3.498899
     74          7           0       -6.390146   -0.264069    0.950698
     75          6           0       -6.699898   -1.398760    1.800716
     76          6           0       -5.609073   -2.459932    1.750578
     77          8           0       -5.847457   -3.565160    2.207355
     78          1           0       -5.718838    0.394680    1.312355
     79          1           0       -7.630577   -1.884872    1.530290
     80          1           0       -6.701035   -1.047136    2.834379
     81          7           0       -4.371103   -2.188194    1.320707
     82          6           0       -3.356159   -3.147725    0.934845
     83          6           0       -1.962537   -2.531361    1.001266
     84          8           0       -1.796301   -1.357391    0.675137
     85          6           0       -3.574443   -3.613705   -0.499664
     86          6           0       -4.826232   -4.438739   -0.688721
     87          6           0       -4.823163   -5.818795   -0.466827
     88          6           0       -5.888894   -3.738412   -1.282010
     89          6           0       -6.013441   -6.490336   -0.769270
     90          6           0       -7.111464   -4.381523   -1.518506
     91          6           0       -7.130586   -5.772079   -1.262009
     92          8           0       -8.269569   -6.492486   -1.378762
     93          1           0       -4.131132   -1.251747    1.010254
     94          1           0       -3.469690   -4.029646    1.559686
     95          1           0       -2.659682   -4.118712   -0.837866
     96          1           0       -3.581408   -2.724949   -1.130349
     97          1           0       -3.998768   -6.389438   -0.079477
     98          1           0       -5.878798   -2.675541   -1.478998
     99          1           0       -6.160551   -7.551631   -0.688577
    100          1           0       -8.035784   -3.896380   -1.793585
    101          1           0       -9.051757   -5.956180   -1.547161
    102          7           0       -0.988582   -3.383212    1.329843
    103          6           0        0.433675   -3.093300    1.399380
    104          6           0        1.191661   -3.859228    0.326574
    105          8           0        0.894529   -5.014576    0.019521
    106          6           0        0.896119   -3.330713    2.829059
    107          6           0        0.225341   -2.382984    3.822219
    108          6           0        2.400780   -3.100949    3.028563
    109          6           0        0.238453   -2.879946    5.263558
    110          1           0       -1.323219   -4.316190    1.525726
    111          1           0        0.577791   -2.028060    1.213923
    112          1           0        0.593174   -4.351450    3.038867
    113          1           0       -0.847450   -2.432291    3.604757
    114          1           0        0.500681   -1.333158    3.736474
    115          1           0        2.779672   -2.989450    4.039459
    116          1           0        2.939040   -3.905244    2.522810
    117          1           0        2.715866   -2.208210    2.487140
    118          1           0       -0.315781   -3.826355    5.300078
    119          1           0        1.236164   -2.924086    5.687734
    120          1           0       -0.148514   -2.137249    5.948800
    121          7           0        2.187743   -3.308130   -0.384630
    122          6           0        3.111103   -3.997869   -1.253116
    123          6           0        4.551279   -4.014536   -0.765144
    124          8           0        4.909065   -3.451314    0.268137
    125          6           0        3.157083   -3.311770   -2.613614
    126          8           0        3.816784   -2.066867   -2.610409
    127          1           0        2.264603   -2.303393   -0.417719
    128          1           0        2.765153   -5.021872   -1.375331
    129          1           0        2.167243   -3.127857   -3.036570
    130          1           0        3.509113   -3.939688   -3.436714
    131          1           0        3.633394   -1.533187   -3.389738
    132          7           0        5.474165   -4.687103   -1.466881
    133          6           0        6.906756   -4.595003   -1.260001
    134          6           0        7.485282   -3.200271   -1.341423
    135          8           0        8.189163   -2.854696   -0.392092
    136          6           0        7.516032   -5.628321   -2.214536
    137          1           0        5.132935   -5.206139   -2.259386
    138          1           0        7.142976   -4.936212   -0.249666
    139          1           0        7.595535   -5.113661   -3.166274
    140          1           0        8.526460   -5.768761   -1.822985
    141          1           0        6.914258   -6.531131   -2.276195
    142          7           0        7.221495   -2.382276   -2.372152
    143          6           0        7.595418   -0.993068   -2.467980
    144          6           0        6.994702   -0.131841   -1.360763
    145          8           0        7.557795    0.902311   -1.015285
    146          6           0        7.266673   -0.455899   -3.856783
    147          1           0        6.879171   -2.846588   -3.197882
    148          1           0        8.680683   -0.949083   -2.377072
    149          1           0        7.967096   -0.885369   -4.581189
    150          1           0        6.248985   -0.736769   -4.129403
    151          1           0        7.348571    0.631903   -3.930796
    152          7           0        5.813610   -0.484784   -0.846805
    153          6           0        5.226365    0.210915    0.285293
    154          6           0        5.843962   -0.096059    1.634419
    155          8           0        6.104108    0.786465    2.453428
    156          6           0        3.700437    0.084756    0.320339
    157          6           0        3.085945    0.913331   -0.807829
    158          6           0        1.582163    0.690842   -0.862952
    159          8           0        0.814040    1.637899   -1.131783
    160          8           0        1.005890   -0.394624   -0.654450
    161          1           0        5.269223   -1.214356   -1.290164
    162          1           0        5.362694    1.282136    0.284508
    163          1           0        3.405205    0.661795    1.196217
    164          1           0        3.482968   -0.973791    0.212241
    165          1           0        3.496108    0.497602   -1.725781
    166          1           0        3.280263    1.984430   -0.840822
    167          7           0        6.257383   -1.345057    1.899155
    168          6           0        6.959641   -1.687170    3.121404
    169          1           0        8.029854   -1.739538    2.922278
    170          1           0        6.768014   -0.924743    3.876355
    171          1           0        6.610525   -2.653984    3.483851
    172          1           0        6.239430   -1.946512    1.086671
    173         20           0       -1.465054    0.388964   -1.374257
    174          8           0       -1.462521    0.548087   -4.046742
    175          1           0       -1.687638    0.173213   -4.891544
    176          1           0       -1.391658    1.492811   -4.214598
 ---------------------------------------------------------------------

 SCF Done:  E(RB3LYP) =  -5333.57059765     A.U. after   19 cycles

 The electronic state is 1-A.
 Alpha  occ. eigenvalues -- -145.36914 -19.18940 -19.14203 -19.12629 -19.12077
 Alpha  occ. eigenvalues --  -19.11885 -19.11834 -19.11783 -19.10139 -19.09989
 Alpha  occ. eigenvalues --  -19.07754 -19.07208 -19.06662 -19.06625 -19.06032
 Alpha  occ. eigenvalues --  -19.05985 -19.05837 -19.05375 -19.04917 -19.04466
 Alpha  occ. eigenvalues --  -19.03946 -19.03091 -19.02449 -19.02410 -15.42667
 Alpha  occ. eigenvalues --  -14.58707 -14.38721 -14.38532 -14.36895 -14.36829
 Alpha  occ. eigenvalues --  -14.35780 -14.35631 -14.33870 -14.32205 -14.31968
 Alpha  occ. eigenvalues --  -14.31440 -14.31386 -14.31302 -14.29330 -14.28517
 Alpha  occ. eigenvalues --  -12.56282 -12.56235 -12.56233 -10.35086 -10.31250
 Alpha  occ. eigenvalues --  -10.30636 -10.30490 -10.29862 -10.29205 -10.28934
 Alpha  occ. eigenvalues --  -10.28146 -10.27244 -10.26762 -10.26532 -10.26447
 Alpha  occ. eigenvalues --  -10.26060 -10.25752 -10.25619 -10.24718 -10.24624
 Alpha  occ. eigenvalues --  -10.24552 -10.24420 -10.24336 -10.23522 -10.23054
 Alpha  occ. eigenvalues --  -10.22952 -10.22845 -10.22708 -10.22682 -10.22169
 Alpha  occ. eigenvalues --  -10.21907 -10.21604 -10.21530 -10.21212 -10.20806
 Alpha  occ. eigenvalues --  -10.20728 -10.20196 -10.20139 -10.19180 -10.19082
 Alpha  occ. eigenvalues --  -10.18736 -10.18624 -10.18562 -10.18230 -10.18052
 Alpha  occ. eigenvalues --  -10.17876 -10.17745 -10.17435 -10.17147 -10.17111
 Alpha  occ. eigenvalues --  -10.17043 -10.16941 -10.16936 -10.16753 -10.16417
 Alpha  occ. eigenvalues --  -10.15682 -10.15268  -1.79472  -1.14434  -1.07114
 Alpha  occ. eigenvalues --   -1.07043  -1.06999  -1.06781  -1.05869  -1.04764
 Alpha  occ. eigenvalues --   -1.04501  -1.04430  -1.03379  -1.03179  -1.03016
 Alpha  occ. eigenvalues --   -1.02952  -1.00498  -0.99956  -0.99766  -0.99356
 Alpha  occ. eigenvalues --   -0.99114  -0.99016  -0.98874  -0.98405  -0.97680
 Alpha  occ. eigenvalues --   -0.96815  -0.95629  -0.95457  -0.94983  -0.93886
 Alpha  occ. eigenvalues --   -0.92539  -0.92000  -0.91654  -0.91188  -0.90196
 Alpha  occ. eigenvalues --   -0.89923  -0.89780  -0.89187  -0.88523  -0.88382
 Alpha  occ. eigenvalues --   -0.88151  -0.87330  -0.87267  -0.86585  -0.84850
 Alpha  occ. eigenvalues --   -0.82920  -0.82518  -0.81571  -0.81556  -0.80254
 Alpha  occ. eigenvalues --   -0.79040  -0.78243  -0.77435  -0.77151  -0.76312
 Alpha  occ. eigenvalues --   -0.76000  -0.74622  -0.74335  -0.72997  -0.72734
 Alpha  occ. eigenvalues --   -0.72392  -0.71993  -0.71078  -0.70868  -0.70669
 Alpha  occ. eigenvalues --   -0.69902  -0.69425  -0.68712  -0.68400  -0.67407
 Alpha  occ. eigenvalues --   -0.67301  -0.66581  -0.65355  -0.64256  -0.63919
 Alpha  occ. eigenvalues --   -0.63767  -0.63005  -0.62483  -0.62009  -0.61855
 Alpha  occ. eigenvalues --   -0.61115  -0.60803  -0.60583  -0.60240  -0.59850
 Alpha  occ. eigenvalues --   -0.59666  -0.59524  -0.58380  -0.58183  -0.57386
 Alpha  occ. eigenvalues --   -0.56972  -0.56453  -0.56217  -0.56079  -0.55806
 Alpha  occ. eigenvalues --   -0.55568  -0.55495  -0.55189  -0.55024  -0.54531
 Alpha  occ. eigenvalues --   -0.54009  -0.53519  -0.53348  -0.53053  -0.53005
 Alpha  occ. eigenvalues --   -0.52221  -0.52033  -0.51943  -0.51568  -0.51403
 Alpha  occ. eigenvalues --   -0.51307  -0.51111  -0.50506  -0.49997  -0.49671
 Alpha  occ. eigenvalues --   -0.49471  -0.49406  -0.49118  -0.49042  -0.48467
 Alpha  occ. eigenvalues --   -0.48131  -0.48108  -0.47781  -0.47551  -0.47461
 Alpha  occ. eigenvalues --   -0.47243  -0.46920  -0.46663  -0.46585  -0.46471
 Alpha  occ. eigenvalues --   -0.46342  -0.46019  -0.45923  -0.45869  -0.45084
 Alpha  occ. eigenvalues --   -0.45058  -0.44810  -0.44641  -0.44278  -0.44107
 Alpha  occ. eigenvalues --   -0.43946  -0.43842  -0.43793  -0.43569  -0.43542
 Alpha  occ. eigenvalues --   -0.43440  -0.43416  -0.43246  -0.42987  -0.42831
 Alpha  occ. eigenvalues --   -0.42499  -0.42400  -0.42121  -0.41868  -0.41810
 Alpha  occ. eigenvalues --   -0.41754  -0.41667  -0.41450  -0.41234  -0.41160
 Alpha  occ. eigenvalues --   -0.41140  -0.41002  -0.40886  -0.40820  -0.40764
 Alpha  occ. eigenvalues --   -0.40572  -0.40468  -0.40312  -0.40032  -0.39963
 Alpha  occ. eigenvalues --   -0.39820  -0.39521  -0.39404  -0.39223  -0.39163
 Alpha  occ. eigenvalues --   -0.39076  -0.38973  -0.38906  -0.38695  -0.38641
 Alpha  occ. eigenvalues --   -0.38334  -0.38274  -0.37946  -0.37829  -0.37753
 Alpha  occ. eigenvalues --   -0.37658  -0.37610  -0.37515  -0.37239  -0.37096
 Alpha  occ. eigenvalues --   -0.36678  -0.36571  -0.36437  -0.36124  -0.35988
 Alpha  occ. eigenvalues --   -0.35918  -0.35724  -0.35490  -0.35388  -0.35356
 Alpha  occ. eigenvalues --   -0.35252  -0.35051  -0.34804  -0.34638  -0.34349
 Alpha  occ. eigenvalues --   -0.34177  -0.34015  -0.33618  -0.33480  -0.33155
 Alpha  occ. eigenvalues --   -0.32878  -0.32824  -0.32559  -0.32463  -0.32326
 Alpha  occ. eigenvalues --   -0.32276  -0.32124  -0.31979  -0.31850  -0.31476
 Alpha  occ. eigenvalues --   -0.31069  -0.30153  -0.30122  -0.30110  -0.29934
 Alpha  occ. eigenvalues --   -0.29338  -0.29329  -0.28525  -0.28170  -0.27762
 Alpha  occ. eigenvalues --   -0.27633  -0.27213  -0.26881  -0.26752  -0.26598
 Alpha  occ. eigenvalues --   -0.25781  -0.25724  -0.25644  -0.24887  -0.24665
 Alpha  occ. eigenvalues --   -0.24373  -0.24045  -0.23501  -0.23370  -0.23233
 Alpha  occ. eigenvalues --   -0.23043  -0.22488  -0.22417  -0.22299  -0.22102
 Alpha  occ. eigenvalues --   -0.21684  -0.21500  -0.21339  -0.21046  -0.20765
 Alpha  occ. eigenvalues --   -0.20709  -0.20697  -0.20388  -0.19920  -0.19661
 Alpha  occ. eigenvalues --   -0.18559  -0.18330  -0.16961
 Alpha virt. eigenvalues --   -0.10716  -0.04793  -0.04572  -0.02722  -0.01835
 Alpha virt. eigenvalues --   -0.00897  -0.00662  -0.00579  -0.00218   0.00141
 Alpha virt. eigenvalues --    0.00366   0.00524   0.00963   0.01305   0.02001

 Mulliken charges:
               1
     1  C    0.056885
     2  C    0.024532
     3  O   -0.293899
     4  H    0.039084
     5  H    0.032736
     6  H    0.014093
     7  N   -0.121572
     8  C    0.085941
     9  C    0.102107
    10  O   -0.288304
    11  C    0.070395
    12  C    0.201367
    13  O   -0.445020
    14  O   -0.410944
    15  H    0.114115
    16  H   -0.004074
    17  H    0.001121
    18  H    0.001641
    19  N   -0.119998
    20  C    0.149691
    21  C    0.040717
    22  O   -0.256147
    23  C   -0.010806
    24  C    0.045369
    25  C   -0.095164
    26  C    0.029122
    27  N    0.091981
    28  H    0.137359
    29  H   -0.005238
    30  H    0.016192
    31  H    0.043906
    32  H    0.008446
    33  H    0.032434
    34  H    0.032559
    35  H    0.041570
    36  H    0.089509
    37  H    0.066731
    38  H    0.194570
    39  H    0.185563
    40  H    0.204316
    41  N   -0.178644
    42  C    0.141485
    43  C    0.082622
    44  O   -0.280775
    45  C    0.056869
    46  C    0.142791
    47  O   -0.416613
    48  O   -0.455750
    49  H    0.145617
    50  H   -0.013922
    51  H   -0.019270
    52  H    0.040212
    53  N   -0.151575
    54  C    0.297275
    55  C   -0.012576
    56  O   -0.292667
    57  H    0.146293
    58  H    0.019123
    59  H   -0.005213
    60  N   -0.170388
    61  C    0.150151
    62  C    0.039613
    63  O   -0.299923
    64  C    0.084858
    65  C    0.077327
    66  N   -0.040627
    67  O   -0.367746
    68  H    0.134129
    69  H    0.031427
    70  H    0.054808
    71  H    0.010113
    72  H    0.126672
    73  H    0.129031
    74  N   -0.139031
    75  C    0.258810
    76  C    0.004981
    77  O   -0.291875
    78  H    0.129512
    79  H    0.038132
    80  H    0.032535
    81  N   -0.142639
    82  C    0.098031
    83  C    0.117697
    84  O   -0.342571
    85  C    0.112864
    86  C    0.046831
    87  C    0.019780
    88  C   -0.017367
    89  C   -0.003665
    90  C   -0.030858
    91  C    0.127183
    92  O   -0.202452
    93  H    0.149388
    94  H   -0.007407
    95  H   -0.016910
    96  H   -0.048228
    97  H   -0.038383
    98  H   -0.020602
    99  H   -0.033689
   100  H   -0.032747
   101  H    0.173477
   102  N   -0.111326
   103  C    0.168568
   104  C    0.082610
   105  O   -0.295565
   106  C   -0.092887
   107  C   -0.024962
   108  C    0.079603
   109  C    0.045081
   110  H    0.130925
   111  H    0.033919
   112  H   -0.027452
   113  H    0.001535
   114  H    0.026231
   115  H    0.011359
   116  H    0.005832
   117  H    0.017687
   118  H    0.016588
   119  H   -0.007780
   120  H   -0.005318
   121  N   -0.135867
   122  C    0.129961
   123  C    0.084471
   124  O   -0.259620
   125  C    0.187858
   126  O   -0.315412
   127  H    0.144491
   128  H    0.035961
   129  H    0.006316
   130  H   -0.019388
   131  H    0.199259
   132  N   -0.122956
   133  C    0.087282
   134  C    0.046013
   135  O   -0.255557
   136  C    0.044871
   137  H    0.102886
   138  H    0.025520
   139  H   -0.006022
   140  H    0.044558
   141  H    0.037870
   142  N   -0.122895
   143  C    0.110576
   144  C    0.068544
   145  O   -0.286092
   146  C    0.036804
   147  H    0.101712
   148  H    0.020067
   149  H    0.025923
   150  H   -0.011719
   151  H    0.025621
   152  N   -0.158925
   153  C    0.156033
   154  C    0.037868
   155  O   -0.292326
   156  C   -0.016204
   157  C    0.113456
   158  C    0.109375
   159  O   -0.415138
   160  O   -0.415090
   161  H    0.144100
   162  H   -0.039436
   163  H    0.052396
   164  H    0.008028
   165  H   -0.047860
   166  H   -0.031818
   167  N   -0.166988
   168  C    0.140634
   169  H    0.017034
   170  H    0.035463
   171  H    0.008650
   172  H    0.134187
   173  Ca   1.321201
   174  O   -0.336650
   175  H    0.154183
   176  H    0.153734
 Sum of Mulliken charges =   0.00000

 Dipole moment (field-independent basis, Debye):
    X=             33.5031    Y=              1.4326    Z=            -16.5501  Tot=             37.3954
 Quadrupole moment (field-independent basis, Debye-Ang):
   XX=           -530.4254   YY=           -493.4423   ZZ=           -505.9169
   XY=            166.8282   XZ=            -75.4300   YZ=             -1.9181

 ESP charges:
               1
     1  C   -0.502935
     2  C    0.914070
     3  O   -0.671767
     4  H    0.152463
     5  H    0.120814
     6  H    0.116063
     7  N   -0.827377
     8  C    0.094198
     9  C    0.738046
    10  O   -0.568595
    11  C   -0.345925
    12  C    0.754944
    13  O   -0.690361
    14  O   -0.690906
    15  H    0.394473
    16  H    0.042844
    17  H    0.108991
    18  H    0.088280
    19  N   -0.329263
    20  C   -0.190548
    21  C    0.481504
    22  O   -0.528889
    23  C    0.209713
    24  C   -0.248347
    25  C   -0.054183
    26  C    0.153913
    27  N   -0.456921
    28  H    0.197455
    29  H    0.108792
    30  H   -0.011855
    31  H    0.042800
    32  H    0.067873
    33  H    0.106263
    34  H    0.051536
    35  H    0.031729
    36  H    0.067550
    37  H    0.058049
    38  H    0.346824
    39  H    0.333329
    40  H    0.369448
    41  N   -0.291577
    42  C   -0.145547
    43  C    0.470418
    44  O   -0.550553
    45  C   -0.285629
    46  C    0.796743
    47  O   -0.735906
    48  O   -0.719975
    49  H    0.264510
    50  H    0.130441
    51  H    0.068672
    52  H    0.140218
    53  N    0.119278
    54  C   -0.381633
    55  C    0.710462
    56  O   -0.571553
    57  H   -0.002309
    58  H    0.146263
    59  H    0.137093
    60  N   -0.612796
    61  C    0.055744
    62  C    0.354322
    63  O   -0.518963
    64  C   -0.218994
    65  C    0.708322
    66  N   -0.825443
    67  O   -0.683988
    68  H    0.279355
    69  H    0.134772
    70  H    0.145920
    71  H    0.051366
    72  H    0.378985
    73  H    0.393270
    74  N   -0.027208
    75  C   -0.442663
    76  C    0.895506
    77  O   -0.605491
    78  H    0.189825
    79  H    0.178005
    80  H    0.139350
    81  N   -0.955911
    82  C    0.525511
    83  C    0.459836
    84  O   -0.538253
    85  C   -0.350229
    86  C    0.295420
    87  C   -0.309639
    88  C   -0.367976
    89  C   -0.123859
    90  C   -0.225374
    91  C    0.311377
    92  O   -0.569124
    93  H    0.523697
    94  H    0.004328
    95  H    0.055142
    96  H    0.057033
    97  H    0.165268
    98  H    0.247786
    99  H    0.130677
   100  H    0.139613
   101  H    0.423922
   102  N   -0.590091
   103  C    0.084789
   104  C    0.682152
   105  O   -0.578801
   106  C    0.029709
   107  C    0.285955
   108  C   -0.388095
   109  C   -0.432658
   110  H    0.293767
   111  H    0.128334
   112  H    0.037786
   113  H   -0.031759
   114  H    0.031822
   115  H    0.121808
   116  H    0.083554
   117  H    0.052205
   118  H    0.098828
   119  H    0.089492
   120  H    0.096245
   121  N   -0.564839
   122  C    0.186288
   123  C    0.587994
   124  O   -0.476350
   125  C   -0.086809
   126  O   -0.430031
   127  H    0.346655
   128  H    0.074762
   129  H    0.092120
   130  H    0.046312
   131  H    0.406377
   132  N   -0.691465
   133  C    0.542412
   134  C    0.347726
   135  O   -0.507959
   136  C   -0.400785
   137  H    0.295710
   138  H   -0.005577
   139  H    0.068337
   140  H    0.102354
   141  H    0.130755
   142  N   -0.357115
   143  C    0.185230
   144  C    0.205419
   145  O   -0.509282
   146  C   -0.335818
   147  H    0.241742
   148  H    0.081260
   149  H    0.097227
   150  H    0.061665
   151  H    0.119193
   152  N    0.432440
   153  C   -0.521669
   154  C    0.584402
   155  O   -0.563849
   156  C   -0.029487
   157  C   -0.098455
   158  C    0.811554
   159  O   -0.782040
   160  O   -0.823295
   161  H   -0.134495
   162  H    0.142885
   163  H    0.184487
   164  H   -0.082135
   165  H   -0.021368
   166  H    0.032540
   167  N   -0.117079
   168  C   -0.234652
   169  H    0.089334
   170  H    0.112894
   171  H    0.080277
   172  H    0.173763
   173  Ca   1.674753
   174  O   -0.935146
   175  H    0.424844
   176  H    0.449002
 Sum of ESP charges =   0.00000

 Normal termination of Gaussian 09 at Mon Sep 16 16:01:33 2019.
