 Gaussian 09, Revision D.01,
 Gaussian 09:  ES64L-G09RevD.01 24-Apr-2013

 ----------------------------------------------------------------------
 #maxdisk=50GB #B3LYP/SVP Density=Current scf=(tight) #IOP(5/87=12)Pop=
 (MK,readradii) iop(6/33=2) iop(6/42=6)
 ----------------------------------------------------------------------

 ------------
 SOL molecule
 ------------
 Symbolic Z-matrix:
 Charge =  0 Multiplicity = 1

                         Standard orientation:
 ---------------------------------------------------------------------
 Center     Atomic      Atomic             Coordinates (Angstroms)
 Number     Number       Type             X           Y           Z
 ---------------------------------------------------------------------
      1          6           0        2.619923    1.321988    5.181285
      2          6           0        1.830964    1.535828    3.896016
      3          8           0        2.461530    1.676272    2.852531
      4          1           0        3.610154    1.764556    5.077031
      5          1           0        2.096878    1.794646    6.012219
      6          1           0        2.718674    0.253466    5.374122
      7          7           0        0.506818    1.423048    3.932336
      8          6           0       -0.324069    1.573426    2.744096
      9          6           0       -0.470686    3.049128    2.388558
     10          8           0       -1.350378    3.726775    2.919536
     11          6           0       -1.693083    0.950927    2.967692
     12          6           0       -2.562570    1.156454    1.732884
     13          8           0       -3.796537    0.962795    1.854211
     14          8           0       -2.086661    1.543417    0.645699
     15          1           0       -0.032673    1.444684    4.785202
     16          1           0        0.158153    1.121172    1.877535
     17          1           0       -2.149431    1.426167    3.835732
     18          1           0       -1.609523   -0.114137    3.183228
     19          7           0        0.278682    3.497272    1.381228
     20          6           0        0.727279    4.781562    0.889741
     21          6           0       -0.312518    5.550782    0.094302
     22          8           0       -0.403804    6.774970    0.245399
     23          6           0        2.134625    4.556062    0.328023
     24          6           0        3.074654    5.761316    0.310506
     25          6           0        4.207708    5.426708   -0.653406
     26          6           0        5.453123    6.258336   -0.342223
     27          7           0        6.561146    6.037223   -1.279823
     28          1           0        0.786215    2.746418    0.926004
     29          1           0        0.793845    5.433893    1.757401
     30          1           0        2.102384    4.126208   -0.676112
     31          1           0        2.611916    3.821183    0.964692
     32          1           0        3.545141    5.846870    1.297381
     33          1           0        2.532802    6.679865    0.112354
     34          1           0        3.759850    5.636882   -1.628778
     35          1           0        4.494102    4.378989   -0.604776
     36          1           0        5.758793    6.108993    0.687759
     37          1           0        5.013877    7.247896   -0.464023
     38          1           0        6.885493    5.100568   -1.457521
     39          1           0        6.354647    6.449655   -2.183514
     40          1           0        7.384608    6.507736   -0.956361
     41          7           0       -1.143112    4.893605   -0.719166
     42          6           0       -2.238533    5.487241   -1.463847
     43          6           0       -3.534927    5.227425   -0.709885
     44          8           0       -4.513511    5.926642   -0.947514
     45          6           0       -2.292288    4.960771   -2.888817
     46          6           0       -2.498074    3.456366   -2.953740
     47          8           0       -2.384827    2.758253   -1.928844
     48          8           0       -2.619070    2.996889   -4.108358
     49          1           0       -1.076927    3.889498   -0.741290
     50          1           0       -2.147093    6.566576   -1.582061
     51          1           0       -1.321778    5.236015   -3.320038
     52          1           0       -3.152153    5.388977   -3.425541
     53          7           0       -3.521635    4.290105    0.236981
     54          6           0       -4.540722    3.990092    1.226706
     55          6           0       -5.593548    3.014045    0.737329
     56          8           0       -6.693208    2.989413    1.291081
     57          1           0       -2.754426    3.639817    0.301905
     58          1           0       -5.097816    4.907129    1.453836
     59          1           0       -4.054811    3.713766    2.158765
     60          7           0       -5.235415    2.323535   -0.340742
     61          6           0       -6.065818    1.391519   -1.078290
     62          6           0       -6.685684    0.213715   -0.327328
     63          8           0       -7.685733   -0.365741   -0.736513
     64          6           0       -5.447427    1.078239   -2.429973
     65          6           0       -4.650859   -0.212194   -2.395899
     66          7           0       -4.852678   -1.160964   -3.322131
     67          8           0       -3.750231   -0.304999   -1.564481
     68          1           0       -4.394043    2.582442   -0.828144
     69          1           0       -6.998880    1.945267   -1.203819
     70          1           0       -4.754965    1.844874   -2.793934
     71          1           0       -6.286040    1.032238   -3.135744
     72          1           0       -5.581232   -1.002207   -3.996894
     73          1           0       -4.185085   -1.907055   -3.406197
     74          7           0       -6.058187   -0.240923    0.763658
     75          6           0       -6.348629   -1.394062    1.588592
     76          6           0       -5.250445   -2.431914    1.751237
     77          8           0       -5.457817   -3.434248    2.430371
     78          1           0       -5.219627    0.222246    1.072352
     79          1           0       -7.132488   -1.987453    1.129732
     80          1           0       -6.679735   -1.041060    2.570966
     81          7           0       -4.119342   -2.115198    1.111474
     82          6           0       -3.085423   -3.085143    0.802253
     83          6           0       -1.691772   -2.470519    0.810887
     84          8           0       -1.370535   -1.382731    0.327540
     85          6           0       -3.411034   -3.791187   -0.513414
     86          6           0       -4.749352   -4.489180   -0.600074
     87          6           0       -4.903498   -5.805071   -0.171038
     88          6           0       -5.835653   -3.853301   -1.214246
     89          6           0       -6.112375   -6.494724   -0.352962
     90          6           0       -7.084786   -4.475892   -1.328479
     91          6           0       -7.229047   -5.782384   -0.812760
     92          8           0       -8.389010   -6.472009   -1.039488
     93          1           0       -4.019476   -1.254720    0.596106
     94          1           0       -3.169933   -3.791529    1.629100
     95          1           0       -2.658592   -4.566639   -0.678958
     96          1           0       -3.327289   -3.051956   -1.296437
     97          1           0       -4.059293   -6.379372    0.205652
     98          1           0       -5.733829   -2.825375   -1.526495
     99          1           0       -6.250962   -7.487304    0.053091
    100          1           0       -7.868514   -3.895115   -1.781985
    101          1           0       -8.937044   -5.914333   -1.606195
    102          7           0       -0.778608   -3.264983    1.374320
    103          6           0        0.637319   -2.995973    1.496331
    104          6           0        1.264915   -3.942166    0.489085
    105          8           0        1.288286   -5.164139    0.545069
    106          6           0        1.098415   -3.370796    2.905656
    107          6           0        0.420317   -2.519305    3.969304
    108          6           0        2.605517   -3.116922    3.020065
    109          6           0        0.559607   -2.935373    5.429025
    110          1           0       -1.109480   -4.121142    1.807120
    111          1           0        0.907794   -1.976965    1.211962
    112          1           0        0.806514   -4.396687    3.130918
    113          1           0       -0.654751   -2.455476    3.800028
    114          1           0        0.620234   -1.463360    3.804340
    115          1           0        2.733762   -2.055007    2.799176
    116          1           0        2.972911   -3.308520    4.032592
    117          1           0        3.205103   -3.648913    2.286047
    118          1           0        1.608327   -2.730390    5.667914
    119          1           0        0.064687   -2.173993    6.040870
    120          1           0        0.200987   -3.946114    5.639487
    121          7           0        1.902477   -3.233740   -0.443732
    122          6           0        2.874333   -3.781186   -1.365034
    123          6           0        4.304369   -3.664856   -0.875069
    124          8           0        4.689964   -2.856860   -0.029517
    125          6           0        2.660482   -3.156068   -2.740859
    126          8           0        3.056309   -1.805098   -2.669435
    127          1           0        1.842922   -2.223404   -0.499179
    128          1           0        2.718681   -4.854279   -1.437444
    129          1           0        1.635227   -3.204753   -3.114731
    130          1           0        3.387131   -3.617035   -3.420926
    131          1           0        2.323366   -1.260840   -2.362226
    132          7           0        5.173773   -4.522192   -1.408465
    133          6           0        6.606257   -4.575132   -1.170377
    134          6           0        7.293063   -3.215083   -1.191951
    135          8           0        7.893872   -2.833308   -0.192063
    136          6           0        7.227987   -5.560399   -2.143876
    137          1           0        4.833141   -5.219711   -2.053087
    138          1           0        6.781711   -4.975883   -0.175583
    139          1           0        6.852673   -6.578878   -2.197159
    140          1           0        7.267279   -5.072043   -3.118435
    141          1           0        8.271819   -5.693211   -1.843582
    142          7           0        7.056500   -2.512159   -2.297906
    143          6           0        7.634479   -1.192533   -2.491883
    144          6           0        7.260419   -0.133219   -1.457749
    145          8           0        8.023659    0.793873   -1.226525
    146          6           0        7.357981   -0.830966   -3.949662
    147          1           0        6.472598   -2.796569   -3.078399
    148          1           0        8.711055   -1.331014   -2.405822
    149          1           0        6.298637   -0.594153   -3.972210
    150          1           0        7.682260    0.170363   -4.224405
    151          1           0        7.641591   -1.516528   -4.747516
    152          7           0        6.035092   -0.214867   -0.929631
    153          6           0        5.559504    0.653003    0.122993
    154          6           0        6.108305    0.303724    1.494168
    155          8           0        6.576737    1.163935    2.242707
    156          6           0        4.038433    0.579877    0.283602
    157          6           0        3.304370    1.153545   -0.928114
    158          6           0        1.840564    0.746149   -0.901610
    159          8           0        1.522552   -0.455200   -1.008511
    160          8           0        0.962010    1.631871   -0.784400
    161          1           0        5.589735   -1.114779   -1.059306
    162          1           0        5.792367    1.704352   -0.006007
    163          1           0        3.726534    1.153738    1.148705
    164          1           0        3.797586   -0.473784    0.452986
    165          1           0        3.777318    0.729783   -1.804782
    166          1           0        3.404319    2.237232   -0.992397
    167          7           0        6.090777   -0.986594    1.840250
    168          6           0        6.785541   -1.445379    3.035917
    169          1           0        7.791425   -1.025729    3.054532
    170          1           0        6.239928   -1.119643    3.921576
    171          1           0        6.846920   -2.533636    3.026348
    172          1           0        5.697653   -1.688276    1.232059
    173         20           0       -1.178115    0.514953   -1.563669
    174          8           0       -2.284443    0.542000   -3.994575
    175          1           0       -2.633500    0.231483   -4.826704
    176          1           0       -2.551084    1.466077   -3.954761
 ---------------------------------------------------------------------

 SCF Done:  E(RB3LYP) =  -5333.61335020     A.U. after   17 cycles

 The electronic state is 1-A.
 Alpha  occ. eigenvalues -- -145.39894 -19.14560 -19.13887 -19.13828 -19.12611
 Alpha  occ. eigenvalues --  -19.12504 -19.12358 -19.11981 -19.11291 -19.11135
 Alpha  occ. eigenvalues --  -19.10715 -19.10501 -19.09142 -19.08213 -19.07442
 Alpha  occ. eigenvalues --  -19.06922 -19.06683 -19.06406 -19.06158 -19.04711
 Alpha  occ. eigenvalues --  -19.03985 -19.03927 -19.03039 -19.01915 -15.45623
 Alpha  occ. eigenvalues --  -14.59003 -14.39633 -14.38819 -14.37161 -14.37140
 Alpha  occ. eigenvalues --  -14.35997 -14.35531 -14.35178 -14.32851 -14.32122
 Alpha  occ. eigenvalues --  -14.32111 -14.31991 -14.29205 -14.29088 -14.28905
 Alpha  occ. eigenvalues --  -12.59228 -12.59222 -12.59174 -10.34835 -10.32175
 Alpha  occ. eigenvalues --  -10.31101 -10.30318 -10.30307 -10.30125 -10.29265
 Alpha  occ. eigenvalues --  -10.28741 -10.28017 -10.26995 -10.26612 -10.26316
 Alpha  occ. eigenvalues --  -10.26211 -10.25967 -10.25595 -10.25437 -10.25196
 Alpha  occ. eigenvalues --  -10.25195 -10.24937 -10.23741 -10.23502 -10.23488
 Alpha  occ. eigenvalues --  -10.23082 -10.22958 -10.22783 -10.22776 -10.22644
 Alpha  occ. eigenvalues --  -10.22618 -10.22309 -10.21930 -10.21742 -10.20675
 Alpha  occ. eigenvalues --  -10.20534 -10.20232 -10.19868 -10.19642 -10.19453
 Alpha  occ. eigenvalues --  -10.19371 -10.19291 -10.18891 -10.18666 -10.18444
 Alpha  occ. eigenvalues --  -10.17929 -10.17789 -10.17737 -10.17656 -10.17605
 Alpha  occ. eigenvalues --  -10.17598 -10.17396 -10.17347 -10.17134 -10.16633
 Alpha  occ. eigenvalues --  -10.15920 -10.15551  -1.82392  -1.14238  -1.09940
 Alpha  occ. eigenvalues --   -1.09767  -1.09687  -1.07154  -1.06441  -1.05188
 Alpha  occ. eigenvalues --   -1.04878  -1.04079  -1.03576  -1.03498  -1.03232
 Alpha  occ. eigenvalues --   -1.03071  -1.02692  -1.02279  -1.00183  -0.99855
 Alpha  occ. eigenvalues --   -0.99282  -0.99045  -0.98935  -0.97872  -0.97684
 Alpha  occ. eigenvalues --   -0.97087  -0.96597  -0.96208  -0.95572  -0.95531
 Alpha  occ. eigenvalues --   -0.94122  -0.93055  -0.92981  -0.92887  -0.91787
 Alpha  occ. eigenvalues --   -0.91500  -0.90333  -0.90140  -0.89194  -0.88918
 Alpha  occ. eigenvalues --   -0.88854  -0.87681  -0.87430  -0.85952  -0.85213
 Alpha  occ. eigenvalues --   -0.83370  -0.82840  -0.82029  -0.81506  -0.80379
 Alpha  occ. eigenvalues --   -0.79065  -0.78056  -0.77401  -0.76950  -0.76221
 Alpha  occ. eigenvalues --   -0.75478  -0.74653  -0.74607  -0.73476  -0.73048
 Alpha  occ. eigenvalues --   -0.72820  -0.72265  -0.72156  -0.71464  -0.70329
 Alpha  occ. eigenvalues --   -0.69883  -0.68997  -0.68592  -0.68125  -0.67708
 Alpha  occ. eigenvalues --   -0.67621  -0.66592  -0.65308  -0.65062  -0.64202
 Alpha  occ. eigenvalues --   -0.64005  -0.63356  -0.63156  -0.62661  -0.62580
 Alpha  occ. eigenvalues --   -0.61829  -0.61316  -0.60967  -0.60449  -0.60238
 Alpha  occ. eigenvalues --   -0.59768  -0.59723  -0.59685  -0.57606  -0.57325
 Alpha  occ. eigenvalues --   -0.57069  -0.56925  -0.56823  -0.56680  -0.56623
 Alpha  occ. eigenvalues --   -0.56604  -0.55944  -0.55699  -0.55307  -0.55180
 Alpha  occ. eigenvalues --   -0.54363  -0.54026  -0.53713  -0.53445  -0.53254
 Alpha  occ. eigenvalues --   -0.52993  -0.52905  -0.52254  -0.51914  -0.51677
 Alpha  occ. eigenvalues --   -0.51016  -0.50740  -0.50599  -0.50089  -0.49988
 Alpha  occ. eigenvalues --   -0.49649  -0.49544  -0.49135  -0.48912  -0.48747
 Alpha  occ. eigenvalues --   -0.48577  -0.48295  -0.47954  -0.47845  -0.47581
 Alpha  occ. eigenvalues --   -0.47288  -0.47150  -0.47050  -0.46933  -0.46749
 Alpha  occ. eigenvalues --   -0.46491  -0.46319  -0.46044  -0.45859  -0.45841
 Alpha  occ. eigenvalues --   -0.45447  -0.45298  -0.45297  -0.45047  -0.44773
 Alpha  occ. eigenvalues --   -0.44710  -0.44408  -0.44307  -0.44160  -0.43927
 Alpha  occ. eigenvalues --   -0.43782  -0.43662  -0.43322  -0.43216  -0.43169
 Alpha  occ. eigenvalues --   -0.43100  -0.43050  -0.42760  -0.42697  -0.42507
 Alpha  occ. eigenvalues --   -0.42387  -0.42295  -0.42079  -0.41723  -0.41586
 Alpha  occ. eigenvalues --   -0.41472  -0.41462  -0.41236  -0.41072  -0.40987
 Alpha  occ. eigenvalues --   -0.40706  -0.40562  -0.40533  -0.40415  -0.40267
 Alpha  occ. eigenvalues --   -0.39938  -0.39894  -0.39762  -0.39708  -0.39544
 Alpha  occ. eigenvalues --   -0.39396  -0.39187  -0.39125  -0.38990  -0.38930
 Alpha  occ. eigenvalues --   -0.38801  -0.38581  -0.38536  -0.38390  -0.38328
 Alpha  occ. eigenvalues --   -0.38074  -0.37883  -0.37723  -0.37547  -0.37418
 Alpha  occ. eigenvalues --   -0.37337  -0.37111  -0.36950  -0.36612  -0.36568
 Alpha  occ. eigenvalues --   -0.36530  -0.36514  -0.36126  -0.35834  -0.35765
 Alpha  occ. eigenvalues --   -0.35424  -0.35369  -0.35174  -0.34919  -0.34813
 Alpha  occ. eigenvalues --   -0.34688  -0.34530  -0.34382  -0.34205  -0.33923
 Alpha  occ. eigenvalues --   -0.33677  -0.33659  -0.33101  -0.32829  -0.32758
 Alpha  occ. eigenvalues --   -0.32548  -0.32015  -0.31769  -0.31643  -0.31444
 Alpha  occ. eigenvalues --   -0.31311  -0.31164  -0.30925  -0.30649  -0.30032
 Alpha  occ. eigenvalues --   -0.29742  -0.29551  -0.29445  -0.29037  -0.28943
 Alpha  occ. eigenvalues --   -0.28853  -0.28317  -0.28071  -0.27681  -0.27264
 Alpha  occ. eigenvalues --   -0.26985  -0.26881  -0.26658  -0.26010  -0.25923
 Alpha  occ. eigenvalues --   -0.25495  -0.25107  -0.24907  -0.24555  -0.24297
 Alpha  occ. eigenvalues --   -0.24140  -0.23635  -0.23601  -0.23556  -0.23002
 Alpha  occ. eigenvalues --   -0.22763  -0.22374  -0.21986  -0.21767  -0.21666
 Alpha  occ. eigenvalues --   -0.20957  -0.20733  -0.20597  -0.19959  -0.19289
 Alpha  occ. eigenvalues --   -0.19155  -0.17814  -0.17723
 Alpha virt. eigenvalues --   -0.10643  -0.05077  -0.04152  -0.03448  -0.02406
 Alpha virt. eigenvalues --   -0.01340  -0.01150  -0.00691  -0.00155  -0.00068
 Alpha virt. eigenvalues --    0.00264   0.00602   0.01397   0.01542   0.01839

 Mulliken charges:
               1
     1  C    0.058892
     2  C    0.039024
     3  O   -0.287361
     4  H    0.036436
     5  H    0.008540
     6  H    0.038496
     7  N   -0.114343
     8  C    0.046046
     9  C    0.046584
    10  O   -0.273946
    11  C    0.100635
    12  C    0.174166
    13  O   -0.382191
    14  O   -0.469572
    15  H    0.123865
    16  H   -0.000121
    17  H    0.011183
    18  H   -0.001085
    19  N   -0.129259
    20  C    0.150406
    21  C    0.056466
    22  O   -0.297210
    23  C   -0.027219
    24  C    0.030605
    25  C   -0.079723
    26  C    0.015229
    27  N    0.098335
    28  H    0.152718
    29  H   -0.000463
    30  H    0.028349
    31  H    0.040424
    32  H    0.004917
    33  H    0.038542
    34  H    0.036494
    35  H    0.044301
    36  H    0.090575
    37  H    0.080853
    38  H    0.197258
    39  H    0.189394
    40  H    0.183479
    41  N   -0.139677
    42  C    0.129833
    43  C    0.040078
    44  O   -0.277372
    45  C    0.096233
    46  C    0.128032
    47  O   -0.458647
    48  O   -0.384622
    49  H    0.133352
    50  H    0.012066
    51  H    0.007563
    52  H    0.035513
    53  N   -0.186219
    54  C    0.215752
    55  C    0.049122
    56  O   -0.294667
    57  H    0.167952
    58  H    0.013247
    59  H    0.047939
    60  N   -0.127362
    61  C    0.122354
    62  C    0.029407
    63  O   -0.299049
    64  C    0.122068
    65  C    0.047607
    66  N   -0.029678
    67  O   -0.340839
    68  H    0.143234
    69  H    0.017396
    70  H    0.036978
    71  H   -0.005428
    72  H    0.130208
    73  H    0.126658
    74  N   -0.179777
    75  C    0.224153
    76  C    0.036347
    77  O   -0.287288
    78  H    0.157267
    79  H    0.029649
    80  H    0.038149
    81  N   -0.169766
    82  C    0.084607
    83  C    0.153129
    84  O   -0.353236
    85  C    0.182342
    86  C    0.007867
    87  C    0.001501
    88  C   -0.034476
    89  C   -0.021419
    90  C   -0.040745
    91  C    0.173868
    92  O   -0.204123
    93  H    0.157936
    94  H   -0.008990
    95  H   -0.018622
    96  H   -0.051609
    97  H   -0.035692
    98  H   -0.038951
    99  H   -0.017633
   100  H   -0.027360
   101  H    0.171635
   102  N   -0.120875
   103  C    0.100183
   104  C    0.093488
   105  O   -0.269535
   106  C   -0.059555
   107  C   -0.039702
   108  C    0.062115
   109  C    0.065205
   110  H    0.139958
   111  H    0.026895
   112  H   -0.010923
   113  H   -0.008136
   114  H   -0.016155
   115  H    0.010503
   116  H    0.008190
   117  H    0.017696
   118  H   -0.002052
   119  H    0.003469
   120  H    0.026063
   121  N   -0.159323
   122  C    0.081861
   123  C    0.108449
   124  O   -0.290756
   125  C    0.276496
   126  O   -0.353067
   127  H    0.141038
   128  H    0.006496
   129  H    0.016319
   130  H   -0.033516
   131  H    0.167190
   132  N   -0.109006
   133  C    0.102448
   134  C    0.061325
   135  O   -0.233799
   136  C    0.020765
   137  H    0.117736
   138  H    0.016577
   139  H    0.037035
   140  H   -0.000349
   141  H    0.032958
   142  N   -0.162570
   143  C    0.103933
   144  C    0.065424
   145  O   -0.283264
   146  C    0.029220
   147  H    0.128105
   148  H    0.019113
   149  H    0.005446
   150  H    0.008634
   151  H    0.036885
   152  N   -0.131485
   153  C    0.163188
   154  C    0.057354
   155  O   -0.289372
   156  C   -0.067693
   157  C    0.153747
   158  C    0.153927
   159  O   -0.424092
   160  O   -0.429810
   161  H    0.139332
   162  H   -0.061817
   163  H    0.049470
   164  H    0.014979
   165  H   -0.017156
   166  H   -0.051687
   167  N   -0.175511
   168  C    0.156177
   169  H    0.023899
   170  H    0.012891
   171  H    0.010038
   172  H    0.129298
   173  Ca   1.336063
   174  O   -0.344618
   175  H    0.161324
   176  H    0.149409
 Sum of Mulliken charges =   0.00000

 Dipole moment (field-independent basis, Debye):
    X=             36.4005    Y=              1.7363    Z=            -17.6149  Tot=             40.4759
 Quadrupole moment (field-independent basis, Debye-Ang):
   XX=           -580.8279   YY=           -499.3704   ZZ=           -511.5343
   XY=            156.9220   XZ=            -23.9001   YZ=             -4.4616

 ESP charges:
               1
     1  C   -0.458791
     2  C    0.794738
     3  O   -0.637667
     4  H    0.141125
     5  H    0.093663
     6  H    0.136584
     7  N   -0.726857
     8  C    0.255613
     9  C    0.436196
    10  O   -0.521563
    11  C   -0.526254
    12  C    0.824613
    13  O   -0.667543
    14  O   -0.677300
    15  H    0.379279
    16  H    0.100354
    17  H    0.144897
    18  H    0.146145
    19  N   -0.007132
    20  C   -0.549594
    21  C    0.763738
    22  O   -0.591244
    23  C    0.263453
    24  C   -0.177491
    25  C    0.198804
    26  C   -0.041662
    27  N   -0.332629
    28  H    0.069868
    29  H    0.178182
    30  H    0.004526
    31  H    0.058688
    32  H    0.023290
    33  H    0.069586
    34  H   -0.008313
    35  H   -0.056283
    36  H    0.114248
    37  H    0.073698
    38  H    0.335521
    39  H    0.314467
    40  H    0.324120
    41  N   -0.657955
    42  C    0.363156
    43  C    0.315884
    44  O   -0.547892
    45  C   -0.467238
    46  C    0.848711
    47  O   -0.772739
    48  O   -0.686308
    49  H    0.357142
    50  H    0.046493
    51  H    0.115774
    52  H    0.130360
    53  N    0.120013
    54  C   -0.436856
    55  C    0.698997
    56  O   -0.577965
    57  H   -0.060637
    58  H    0.145572
    59  H    0.195752
    60  N   -0.533069
    61  C    0.068551
    62  C    0.387688
    63  O   -0.560172
    64  C   -0.192391
    65  C    0.595606
    66  N   -0.838151
    67  O   -0.557881
    68  H    0.370171
    69  H    0.086628
    70  H    0.097915
    71  H    0.063111
    72  H    0.390776
    73  H    0.401978
    74  N    0.029094
    75  C   -0.385816
    76  C    0.785083
    77  O   -0.582829
    78  H    0.170631
    79  H    0.146722
    80  H    0.121849
    81  N   -0.749310
    82  C    0.316388
    83  C    0.724064
    84  O   -0.750650
    85  C   -0.244543
    86  C    0.026645
    87  C   -0.022015
    88  C   -0.127916
    89  C   -0.395800
    90  C   -0.446453
    91  C    0.541889
    92  O   -0.573405
    93  H    0.388088
    94  H    0.022249
    95  H    0.055606
    96  H    0.030891
    97  H    0.097157
    98  H    0.198312
    99  H    0.193015
   100  H    0.180375
   101  H    0.400278
   102  N   -0.714660
   103  C    0.164379
   104  C    0.549511
   105  O   -0.549469
   106  C   -0.019061
   107  C    0.340318
   108  C   -0.259369
   109  C   -0.414157
   110  H    0.328663
   111  H    0.114336
   112  H    0.029464
   113  H   -0.061424
   114  H   -0.035679
   115  H    0.039344
   116  H    0.076018
   117  H    0.071324
   118  H    0.071684
   119  H    0.092318
   120  H    0.113837
   121  N   -0.344423
   122  C   -0.084971
   123  C    0.691562
   124  O   -0.517253
   125  C    0.059511
   126  O   -0.552324
   127  H    0.231208
   128  H    0.072850
   129  H    0.075422
   130  H    0.031782
   131  H    0.352764
   132  N   -0.538520
   133  C    0.185099
   134  C    0.432715
   135  O   -0.501749
   136  C   -0.230410
   137  H    0.288319
   138  H    0.050752
   139  H    0.099563
   140  H    0.017058
   141  H    0.083539
   142  N   -0.269394
   143  C   -0.124970
   144  C    0.503404
   145  O   -0.545947
   146  C   -0.269881
   147  H    0.295089
   148  H    0.126770
   149  H    0.058945
   150  H    0.101245
   151  H    0.102820
   152  N    0.105754
   153  C   -0.745450
   154  C    0.743869
   155  O   -0.587648
   156  C    0.400778
   157  C    0.245854
   158  C    0.497411
   159  O   -0.586176
   160  O   -0.704463
   161  H    0.026975
   162  H    0.202819
   163  H   -0.022965
   164  H   -0.147777
   165  H   -0.100588
   166  H   -0.111294
   167  N   -0.293160
   168  C   -0.215438
   169  H    0.112194
   170  H    0.077442
   171  H    0.093155
   172  H    0.299128
   173  Ca   1.633528
   174  O   -0.920766
   175  H    0.435550
   176  H    0.417616
 Sum of ESP charges =   0.00000

 Normal termination of Gaussian 09 at Mon Sep 16 14:41:47 2019.
