 Gaussian 09, Revision D.01,
 Gaussian 09:  ES64L-G09RevD.01 24-Apr-2013

 ----------------------------------------------------------------------
 #maxdisk=50GB #B3LYP/SVP Density=Current scf=(tight) #IOP(5/87=12)Pop=
 (MK,readradii) iop(6/33=2) iop(6/42=6)
 ----------------------------------------------------------------------

 ------------
 SOL molecule
 ------------
 Symbolic Z-matrix:
 Charge =  0 Multiplicity = 1

                         Standard orientation:
 ---------------------------------------------------------------------
 Center     Atomic      Atomic             Coordinates (Angstroms)
 Number     Number       Type             X           Y           Z
 ---------------------------------------------------------------------
      1          6           0        2.454503    1.666103    5.295701
      2          6           0        1.700524    1.819083    3.982608
      3          8           0        2.286576    2.305688    3.023933
      4          1           0        3.492174    1.967173    5.155144
      5          1           0        1.993523    2.297580    6.055992
      6          1           0        2.419533    0.624793    5.616392
      7          7           0        0.378619    1.626919    3.998137
      8          6           0       -0.408673    1.853161    2.810036
      9          6           0       -0.533384    3.318478    2.393152
     10          8           0       -1.221652    4.130177    3.002030
     11          6           0       -1.814324    1.333864    3.110996
     12          6           0       -2.758730    1.278328    1.926972
     13          8           0       -3.966151    1.011019    2.141867
     14          8           0       -2.346021    1.509883    0.771570
     15          1           0       -0.059324    1.291150    4.851873
     16          1           0        0.053296    1.421106    1.911919
     17          1           0       -2.304989    1.951584    3.863837
     18          1           0       -1.795740    0.300163    3.441021
     19          7           0        0.069397    3.621600    1.244861
     20          6           0        0.625517    4.909650    0.881325
     21          6           0       -0.221627    5.617424   -0.164142
     22          8           0       -0.151243    6.845234   -0.255406
     23          6           0        2.065449    4.655816    0.441821
     24          6           0        2.939906    5.900917    0.326713
     25          6           0        4.321193    5.686118   -0.288110
     26          6           0        4.113804    5.238128   -1.739315
     27          7           0        5.105561    5.904864   -2.600234
     28          1           0        0.497387    2.826616    0.787231
     29          1           0        0.640866    5.635650    1.686364
     30          1           0        2.144897    4.109854   -0.504284
     31          1           0        2.514406    3.959920    1.140582
     32          1           0        3.160634    6.119726    1.365367
     33          1           0        2.434069    6.731280   -0.162803
     34          1           0        4.908122    4.964519    0.272077
     35          1           0        4.846480    6.643179   -0.237044
     36          1           0        3.107911    5.368163   -2.106833
     37          1           0        4.329933    4.161754   -1.774058
     38          1           0        4.959730    6.884393   -2.429187
     39          1           0        6.038411    5.661871   -2.307584
     40          1           0        4.891035    5.667404   -3.560698
     41          7           0       -0.996408    4.810277   -0.891212
     42          6           0       -2.197493    5.247806   -1.582993
     43          6           0       -3.543528    4.926694   -0.960678
     44          8           0       -4.617678    5.028058   -1.549598
     45          6           0       -2.076666    4.817566   -3.041930
     46          6           0       -2.001809    3.335186   -3.370783
     47          8           0       -1.710535    2.927872   -4.525709
     48          8           0       -2.347174    2.457424   -2.560316
     49          1           0       -0.875972    3.827061   -0.726043
     50          1           0       -2.177021    6.336574   -1.654866
     51          1           0       -1.215998    5.317471   -3.487177
     52          1           0       -2.946273    5.184363   -3.599104
     53          7           0       -3.499000    4.557457    0.327686
     54          6           0       -4.612582    4.152861    1.145695
     55          6           0       -5.591663    3.094039    0.635699
     56          8           0       -6.700655    3.066223    1.181283
     57          1           0       -2.579485    4.482220    0.736869
     58          1           0       -5.152266    5.070499    1.385656
     59          1           0       -4.197642    3.663450    2.025583
     60          7           0       -5.245027    2.226969   -0.310997
     61          6           0       -6.139490    1.333941   -1.038828
     62          6           0       -6.552346    0.081555   -0.293187
     63          8           0       -7.285919   -0.763945   -0.807581
     64          6           0       -5.466034    1.096763   -2.393229
     65          6           0       -4.689794   -0.205826   -2.438114
     66          7           0       -5.061663   -1.196377   -3.257518
     67          8           0       -3.726637   -0.408854   -1.698379
     68          1           0       -4.281224    2.133119   -0.560747
     69          1           0       -7.082736    1.814521   -1.279095
     70          1           0       -4.762501    1.895292   -2.628163
     71          1           0       -6.225008    1.112250   -3.173433
     72          1           0       -5.808995   -1.024759   -3.909318
     73          1           0       -4.544906   -2.064399   -3.257452
     74          7           0       -6.183153   -0.124008    0.977773
     75          6           0       -6.538532   -1.360155    1.626808
     76          6           0       -5.456539   -2.426333    1.717659
     77          8           0       -5.743253   -3.404554    2.407426
     78          1           0       -5.414279    0.430407    1.326568
     79          1           0       -7.465362   -1.830844    1.296446
     80          1           0       -6.787158   -1.114898    2.668073
     81          7           0       -4.335165   -2.232867    1.030278
     82          6           0       -3.228518   -3.152358    0.926513
     83          6           0       -1.841217   -2.552362    1.105397
     84          8           0       -1.568065   -1.409153    0.748939
     85          6           0       -3.410576   -4.034664   -0.304174
     86          6           0       -4.770542   -4.625078   -0.606998
     87          6           0       -5.047118   -5.956727   -0.259409
     88          6           0       -5.706276   -3.799970   -1.224815
     89          6           0       -6.262497   -6.514758   -0.674686
     90          6           0       -6.946313   -4.352169   -1.574077
     91          6           0       -7.222491   -5.709163   -1.319534
     92          8           0       -8.365782   -6.289372   -1.765003
     93          1           0       -4.167818   -1.284898    0.713654
     94          1           0       -3.248994   -3.802254    1.798818
     95          1           0       -2.736357   -4.891079   -0.228141
     96          1           0       -3.084031   -3.470176   -1.171251
     97          1           0       -4.375837   -6.505525    0.385187
     98          1           0       -5.480477   -2.751062   -1.363409
     99          1           0       -6.487865   -7.537363   -0.418585
    100          1           0       -7.646325   -3.760449   -2.149882
    101          1           0       -8.951975   -5.649349   -2.170772
    102          7           0       -0.807777   -3.331767    1.436048
    103          6           0        0.605908   -3.009843    1.514534
    104          6           0        1.435524   -3.812535    0.524422
    105          8           0        1.386123   -5.034432    0.459402
    106          6           0        1.151150   -3.209319    2.926455
    107          6           0        0.405812   -2.275698    3.875888
    108          6           0        2.657245   -2.932730    2.917734
    109          6           0        0.724656   -2.585182    5.344751
    110          1           0       -1.163732   -4.209417    1.797195
    111          1           0        0.716811   -1.962529    1.228643
    112          1           0        1.029743   -4.203660    3.353709
    113          1           0       -0.658800   -2.239595    3.632583
    114          1           0        0.676156   -1.220659    3.792776
    115          1           0        3.077849   -3.846967    2.493631
    116          1           0        2.841278   -2.005951    2.368360
    117          1           0        3.065917   -2.660793    3.882533
    118          1           0        1.792373   -2.427050    5.519038
    119          1           0        0.104033   -1.997601    6.021416
    120          1           0        0.500554   -3.641952    5.446803
    121          7           0        2.296776   -3.172913   -0.273782
    122          6           0        3.167746   -3.839120   -1.225664
    123          6           0        4.595459   -3.695329   -0.727807
    124          8           0        4.922113   -2.994582    0.223008
    125          6           0        2.945915   -3.187203   -2.588564
    126          8           0        3.633049   -1.956384   -2.643620
    127          1           0        2.471149   -2.181217   -0.191735
    128          1           0        3.067215   -4.921068   -1.290334
    129          1           0        1.881652   -2.952729   -2.672030
    130          1           0        3.245887   -3.915337   -3.334712
    131          1           0        3.287122   -1.479218   -3.402730
    132          7           0        5.506769   -4.391070   -1.406010
    133          6           0        6.918915   -4.343999   -1.079626
    134          6           0        7.466093   -2.931077   -1.251520
    135          8           0        8.138070   -2.462069   -0.336053
    136          6           0        7.651097   -5.351919   -1.956214
    137          1           0        5.258845   -4.851742   -2.278945
    138          1           0        6.977394   -4.689627   -0.050198
    139          1           0        8.684093   -5.322623   -1.624459
    140          1           0        7.336641   -6.386788   -1.811076
    141          1           0        7.542856   -5.123012   -3.012095
    142          7           0        7.158374   -2.258271   -2.371136
    143          6           0        7.498304   -0.861817   -2.519009
    144          6           0        7.127704    0.091803   -1.395014
    145          8           0        7.885575    0.947042   -0.939056
    146          6           0        6.922620   -0.245096   -3.786779
    147          1           0        6.446711   -2.698345   -2.938913
    148          1           0        8.582842   -0.804637   -2.664293
    149          1           0        7.288768    0.748882   -4.030181
    150          1           0        7.005578   -0.927206   -4.637746
    151          1           0        5.857659   -0.029917   -3.685510
    152          7           0        5.918484   -0.036232   -0.846203
    153          6           0        5.403780    0.535071    0.383469
    154          6           0        6.122122    0.108344    1.663504
    155          8           0        6.330652    0.947628    2.535237
    156          6           0        3.894703    0.350945    0.413203
    157          6           0        3.175911    1.179254   -0.649503
    158          6           0        1.658329    1.084879   -0.606636
    159          8           0        1.078750    0.042649   -0.247827
    160          8           0        0.927860    1.991762   -1.079266
    161          1           0        5.208368   -0.506491   -1.404677
    162          1           0        5.579114    1.600480    0.274556
    163          1           0        3.555097    0.731777    1.382758
    164          1           0        3.668662   -0.711719    0.302978
    165          1           0        3.422621    0.725148   -1.604868
    166          1           0        3.492307    2.220016   -0.582363
    167          7           0        6.554590   -1.145208    1.791872
    168          6           0        7.268897   -1.544619    2.989217
    169          1           0        8.335849   -1.371690    2.849407
    170          1           0        6.914033   -0.958981    3.836820
    171          1           0        7.095423   -2.603339    3.180791
    172          1           0        6.391352   -1.805334    1.042414
    173         20           0       -1.283684    0.330348   -1.254124
    174          8           0       -0.999767   -2.018746   -2.484145
    175          1           0       -0.366459   -2.730743   -2.416459
    176          1           0       -1.723799   -2.369869   -2.997749
 ---------------------------------------------------------------------

 SCF Done:  E(RB3LYP) =  -5333.56338487     A.U. after   18 cycles

 The electronic state is 1-A.
 Alpha  occ. eigenvalues -- -145.38164 -19.21567 -19.21200 -19.15113 -19.14956
 Alpha  occ. eigenvalues --  -19.12720 -19.11872 -19.11822 -19.11396 -19.10468
 Alpha  occ. eigenvalues --  -19.09638 -19.09239 -19.08931 -19.07841 -19.07635
 Alpha  occ. eigenvalues --  -19.06946 -19.05980 -19.05020 -19.04617 -19.04562
 Alpha  occ. eigenvalues --  -19.02991 -19.02839 -19.02460 -18.99264 -15.43889
 Alpha  occ. eigenvalues --  -14.57678 -14.40596 -14.39621 -14.37876 -14.37668
 Alpha  occ. eigenvalues --  -14.36763 -14.35970 -14.35268 -14.33196 -14.32661
 Alpha  occ. eigenvalues --  -14.32661 -14.32542 -14.30085 -14.29311 -14.29294
 Alpha  occ. eigenvalues --  -12.57500 -12.57477 -12.57451 -10.33316 -10.33140
 Alpha  occ. eigenvalues --  -10.31470 -10.30686 -10.30448 -10.30288 -10.30270
 Alpha  occ. eigenvalues --  -10.29532 -10.28627 -10.27980 -10.27792 -10.27260
 Alpha  occ. eigenvalues --  -10.26725 -10.26219 -10.25989 -10.25915 -10.25757
 Alpha  occ. eigenvalues --  -10.25008 -10.24739 -10.23937 -10.23893 -10.23653
 Alpha  occ. eigenvalues --  -10.23524 -10.23459 -10.23442 -10.23283 -10.22933
 Alpha  occ. eigenvalues --  -10.22431 -10.22030 -10.21503 -10.21241 -10.20693
 Alpha  occ. eigenvalues --  -10.20662 -10.20644 -10.20198 -10.19976 -10.19624
 Alpha  occ. eigenvalues --  -10.19551 -10.19530 -10.19345 -10.18468 -10.18218
 Alpha  occ. eigenvalues --  -10.18217 -10.18123 -10.18118 -10.18049 -10.17945
 Alpha  occ. eigenvalues --  -10.17920 -10.17595 -10.17534 -10.17515 -10.17268
 Alpha  occ. eigenvalues --  -10.15873 -10.14064  -1.80666  -1.13136  -1.09459
 Alpha  occ. eigenvalues --   -1.08524  -1.08260  -1.08161  -1.08003  -1.07100
 Alpha  occ. eigenvalues --   -1.05828  -1.05535  -1.04827  -1.04755  -1.04412
 Alpha  occ. eigenvalues --   -1.03995  -1.03484  -1.02465  -1.00800  -1.00161
 Alpha  occ. eigenvalues --   -0.99967  -0.99225  -0.98498  -0.98289  -0.97726
 Alpha  occ. eigenvalues --   -0.97538  -0.96190  -0.95908  -0.95758  -0.94639
 Alpha  occ. eigenvalues --   -0.93946  -0.93368  -0.92719  -0.91658  -0.91321
 Alpha  occ. eigenvalues --   -0.91237  -0.90670  -0.89428  -0.88773  -0.88369
 Alpha  occ. eigenvalues --   -0.87367  -0.87190  -0.86393  -0.85845  -0.84372
 Alpha  occ. eigenvalues --   -0.84060  -0.83728  -0.82893  -0.81665  -0.80151
 Alpha  occ. eigenvalues --   -0.79851  -0.79497  -0.78389  -0.76997  -0.75927
 Alpha  occ. eigenvalues --   -0.75493  -0.75394  -0.74178  -0.73542  -0.73221
 Alpha  occ. eigenvalues --   -0.72827  -0.72568  -0.72076  -0.71676  -0.71413
 Alpha  occ. eigenvalues --   -0.70911  -0.69954  -0.69203  -0.68432  -0.68020
 Alpha  occ. eigenvalues --   -0.67636  -0.67554  -0.65784  -0.65399  -0.64589
 Alpha  occ. eigenvalues --   -0.63800  -0.63609  -0.63515  -0.62667  -0.62250
 Alpha  occ. eigenvalues --   -0.62061  -0.61359  -0.61113  -0.61011  -0.60479
 Alpha  occ. eigenvalues --   -0.60394  -0.60350  -0.59604  -0.59342  -0.59289
 Alpha  occ. eigenvalues --   -0.58282  -0.57952  -0.57817  -0.56929  -0.56875
 Alpha  occ. eigenvalues --   -0.56517  -0.56287  -0.56239  -0.56133  -0.55417
 Alpha  occ. eigenvalues --   -0.55252  -0.54322  -0.53965  -0.53672  -0.53617
 Alpha  occ. eigenvalues --   -0.53448  -0.53234  -0.52941  -0.52758  -0.52583
 Alpha  occ. eigenvalues --   -0.52280  -0.51576  -0.51413  -0.51243  -0.50795
 Alpha  occ. eigenvalues --   -0.50001  -0.49947  -0.49529  -0.49232  -0.48970
 Alpha  occ. eigenvalues --   -0.48905  -0.48811  -0.48461  -0.48354  -0.48108
 Alpha  occ. eigenvalues --   -0.47920  -0.47814  -0.47742  -0.47563  -0.47271
 Alpha  occ. eigenvalues --   -0.47158  -0.47075  -0.46590  -0.46584  -0.46044
 Alpha  occ. eigenvalues --   -0.45823  -0.45764  -0.45347  -0.45161  -0.45102
 Alpha  occ. eigenvalues --   -0.45030  -0.44917  -0.44829  -0.44544  -0.44400
 Alpha  occ. eigenvalues --   -0.44146  -0.44053  -0.44015  -0.43793  -0.43613
 Alpha  occ. eigenvalues --   -0.43544  -0.43391  -0.43044  -0.42780  -0.42602
 Alpha  occ. eigenvalues --   -0.42389  -0.42339  -0.42265  -0.41967  -0.41884
 Alpha  occ. eigenvalues --   -0.41823  -0.41674  -0.41613  -0.41229  -0.41198
 Alpha  occ. eigenvalues --   -0.41017  -0.40828  -0.40783  -0.40664  -0.40541
 Alpha  occ. eigenvalues --   -0.40451  -0.40351  -0.40161  -0.39875  -0.39832
 Alpha  occ. eigenvalues --   -0.39612  -0.39464  -0.39399  -0.39216  -0.39054
 Alpha  occ. eigenvalues --   -0.38997  -0.38911  -0.38655  -0.38540  -0.38493
 Alpha  occ. eigenvalues --   -0.38436  -0.38203  -0.38010  -0.37836  -0.37702
 Alpha  occ. eigenvalues --   -0.37638  -0.37408  -0.37080  -0.36872  -0.36820
 Alpha  occ. eigenvalues --   -0.36726  -0.36512  -0.36104  -0.36004  -0.35987
 Alpha  occ. eigenvalues --   -0.35705  -0.35669  -0.35425  -0.35299  -0.35148
 Alpha  occ. eigenvalues --   -0.35069  -0.34632  -0.34530  -0.34404  -0.34296
 Alpha  occ. eigenvalues --   -0.34103  -0.33995  -0.33844  -0.33397  -0.33261
 Alpha  occ. eigenvalues --   -0.32823  -0.32587  -0.32482  -0.32332  -0.32138
 Alpha  occ. eigenvalues --   -0.32037  -0.31517  -0.31144  -0.30791  -0.30306
 Alpha  occ. eigenvalues --   -0.30250  -0.30006  -0.29382  -0.29337  -0.28643
 Alpha  occ. eigenvalues --   -0.28409  -0.27754  -0.27730  -0.27506  -0.27357
 Alpha  occ. eigenvalues --   -0.27031  -0.26903  -0.26494  -0.26051  -0.25975
 Alpha  occ. eigenvalues --   -0.24992  -0.24637  -0.24595  -0.24496  -0.23924
 Alpha  occ. eigenvalues --   -0.23753  -0.23201  -0.23080  -0.22884  -0.22765
 Alpha  occ. eigenvalues --   -0.22309  -0.21766  -0.21336  -0.21165  -0.20976
 Alpha  occ. eigenvalues --   -0.20362  -0.20068  -0.19821  -0.19352  -0.18696
 Alpha  occ. eigenvalues --   -0.18552  -0.18374  -0.15070
 Alpha virt. eigenvalues --   -0.09684  -0.05298  -0.03682  -0.03337  -0.03286
 Alpha virt. eigenvalues --   -0.02677  -0.02000  -0.01438  -0.01282  -0.00540
 Alpha virt. eigenvalues --   -0.00331   0.00144   0.00365   0.00707   0.01319

 Mulliken charges:
               1
     1  C    0.047411
     2  C    0.043218
     3  O   -0.290147
     4  H    0.042654
     5  H    0.034937
     6  H    0.016890
     7  N   -0.112416
     8  C    0.117446
     9  C    0.063126
    10  O   -0.277923
    11  C    0.053328
    12  C    0.149902
    13  O   -0.389885
    14  O   -0.467924
    15  H    0.126488
    16  H   -0.006049
    17  H    0.031292
    18  H    0.000903
    19  N   -0.151046
    20  C    0.152264
    21  C    0.051569
    22  O   -0.290279
    23  C   -0.049622
    24  C    0.019131
    25  C   -0.042613
    26  C   -0.019772
    27  N    0.078721
    28  H    0.150128
    29  H    0.013196
    30  H    0.006103
    31  H    0.040789
    32  H    0.014851
    33  H    0.023789
    34  H    0.057152
    35  H    0.011380
    36  H    0.108117
    37  H    0.077037
    38  H    0.189809
    39  H    0.200840
    40  H    0.197126
    41  N   -0.150231
    42  C    0.143441
    43  C    0.060358
    44  O   -0.278590
    45  C    0.067418
    46  C    0.074736
    47  O   -0.384455
    48  O   -0.450461
    49  H    0.142987
    50  H    0.016845
    51  H   -0.028325
    52  H    0.024403
    53  N   -0.156492
    54  C    0.218740
    55  C    0.043325
    56  O   -0.309455
    57  H    0.125646
    58  H    0.021814
    59  H    0.039787
    60  N   -0.132370
    61  C    0.160153
    62  C    0.032604
    63  O   -0.325346
    64  C    0.113494
    65  C    0.060685
    66  N   -0.025511
    67  O   -0.387684
    68  H    0.140622
    69  H    0.025963
    70  H    0.083255
    71  H   -0.017415
    72  H    0.131995
    73  H    0.116330
    74  N   -0.140031
    75  C    0.219668
    76  C    0.027988
    77  O   -0.298234
    78  H    0.152640
    79  H    0.042269
    80  H    0.022434
    81  N   -0.144176
    82  C    0.143600
    83  C    0.100317
    84  O   -0.340867
    85  C    0.170449
    86  C   -0.026333
    87  C    0.011559
    88  C   -0.009766
    89  C   -0.025317
    90  C   -0.037237
    91  C    0.180058
    92  O   -0.192827
    93  H    0.151425
    94  H   -0.011480
    95  H   -0.031415
    96  H   -0.076191
    97  H   -0.032807
    98  H   -0.017357
    99  H   -0.029716
   100  H   -0.039644
   101  H    0.172582
   102  N   -0.128998
   103  C    0.194090
   104  C    0.039843
   105  O   -0.281973
   106  C   -0.129183
   107  C   -0.008683
   108  C    0.078214
   109  C    0.043481
   110  H    0.125169
   111  H    0.031493
   112  H   -0.006793
   113  H    0.005011
   114  H   -0.014665
   115  H    0.032987
   116  H    0.007420
   117  H    0.000738
   118  H    0.012986
   119  H    0.013661
   120  H   -0.001237
   121  N   -0.133800
   122  C    0.062782
   123  C    0.097487
   124  O   -0.254821
   125  C    0.243679
   126  O   -0.303572
   127  H    0.135106
   128  H    0.041871
   129  H   -0.015515
   130  H   -0.001395
   131  H    0.188144
   132  N   -0.144989
   133  C    0.098827
   134  C    0.062677
   135  O   -0.253192
   136  C    0.039954
   137  H    0.112857
   138  H    0.021532
   139  H    0.043585
   140  H    0.032211
   141  H    0.004048
   142  N   -0.105523
   143  C    0.113446
   144  C    0.040434
   145  O   -0.261185
   146  C    0.037973
   147  H    0.098666
   148  H    0.022898
   149  H    0.020721
   150  H    0.016839
   151  H   -0.021558
   152  N   -0.163819
   153  C    0.168595
   154  C    0.062021
   155  O   -0.289013
   156  C   -0.055709
   157  C    0.106909
   158  C    0.115384
   159  O   -0.416309
   160  O   -0.408358
   161  H    0.118043
   162  H   -0.037193
   163  H    0.048260
   164  H    0.020767
   165  H   -0.031271
   166  H   -0.022877
   167  N   -0.158638
   168  C    0.144844
   169  H    0.024206
   170  H    0.029140
   171  H    0.001828
   172  H    0.143613
   173  Ca   1.287879
   174  O   -0.284311
   175  H    0.185347
   176  H    0.195139
 Sum of Mulliken charges =   0.00000

 Dipole moment (field-independent basis, Debye):
    X=             31.2845    Y=             -4.8918    Z=            -18.1936  Tot=             36.5192
 Quadrupole moment (field-independent basis, Debye-Ang):
   XX=           -615.2968   YY=           -502.1005   ZZ=           -516.5943
   XY=             96.5778   XZ=            -62.5901   YZ=             -4.3271

 ESP charges:
               1
     1  C   -0.454225
     2  C    0.869498
     3  O   -0.670655
     4  H    0.142169
     5  H    0.114493
     6  H    0.095847
     7  N   -0.780025
     8  C    0.519202
     9  C    0.325078
    10  O   -0.528782
    11  C   -0.560101
    12  C    0.983793
    13  O   -0.736377
    14  O   -0.919413
    15  H    0.372400
    16  H   -0.169380
    17  H    0.144903
    18  H    0.116506
    19  N    0.273236
    20  C   -0.779271
    21  C    0.784633
    22  O   -0.591953
    23  C    0.407950
    24  C   -0.169839
    25  C    0.002598
    26  C    0.179061
    27  N   -0.527902
    28  H    0.265312
    29  H    0.209838
    30  H   -0.134002
    31  H    0.013856
    32  H    0.053511
    33  H    0.050189
    34  H    0.028905
    35  H    0.010099
    36  H    0.079465
    37  H    0.038059
    38  H    0.355062
    39  H    0.366929
    40  H    0.371980
    41  N   -0.535335
    42  C    0.021902
    43  C    0.447073
    44  O   -0.533374
    45  C   -0.251487
    46  C    0.772343
    47  O   -0.717091
    48  O   -0.799452
    49  H    0.316232
    50  H    0.107415
    51  H    0.049709
    52  H    0.093374
    53  N   -0.242000
    54  C   -0.166471
    55  C    0.589185
    56  O   -0.589911
    57  H    0.166330
    58  H    0.103341
    59  H    0.103768
    60  N   -0.374626
    61  C   -0.172878
    62  C    0.511297
    63  O   -0.563384
    64  C   -0.270827
    65  C    0.575259
    66  N   -0.739393
    67  O   -0.532250
    68  H    0.467087
    69  H    0.180088
    70  H    0.178121
    71  H    0.099077
    72  H    0.370118
    73  H    0.342399
    74  N   -0.336199
    75  C    0.005201
    76  C    0.605346
    77  O   -0.583221
    78  H    0.349896
    79  H    0.099063
    80  H    0.037618
    81  N   -0.355713
    82  C    0.353169
    83  C    0.519034
    84  O   -0.426777
    85  C   -0.048509
    86  C    0.062899
    87  C   -0.163937
    88  C   -0.256996
    89  C   -0.280511
    90  C   -0.315594
    91  C    0.462701
    92  O   -0.588332
    93  H   -0.035046
    94  H   -0.036459
    95  H   -0.004240
    96  H   -0.058225
    97  H    0.140594
    98  H    0.295625
    99  H    0.165251
   100  H    0.126772
   101  H    0.424043
   102  N   -0.613011
   103  C   -0.247861
   104  C    0.780355
   105  O   -0.594990
   106  C    0.251817
   107  C    0.174556
   108  C   -0.416574
   109  C   -0.384953
   110  H    0.327212
   111  H    0.135603
   112  H    0.016293
   113  H   -0.014879
   114  H    0.003748
   115  H    0.105497
   116  H    0.060461
   117  H    0.122728
   118  H    0.090760
   119  H    0.098556
   120  H    0.070524
   121  N   -0.540845
   122  C    0.141110
   123  C    0.589215
   124  O   -0.477764
   125  C   -0.031971
   126  O   -0.495139
   127  H    0.387730
   128  H    0.053866
   129  H    0.063833
   130  H    0.044313
   131  H    0.401772
   132  N   -0.547637
   133  C    0.110978
   134  C    0.547487
   135  O   -0.518176
   136  C   -0.345487
   137  H    0.314936
   138  H    0.114529
   139  H    0.116645
   140  H    0.118693
   141  H    0.083422
   142  N   -0.502369
   143  C    0.279560
   144  C    0.240457
   145  O   -0.501781
   146  C   -0.419397
   147  H    0.284815
   148  H    0.062954
   149  H    0.138034
   150  H    0.107038
   151  H    0.082727
   152  N    0.192196
   153  C   -0.547652
   154  C    0.664906
   155  O   -0.572205
   156  C    0.403561
   157  C   -0.481190
   158  C    0.937035
   159  O   -0.745570
   160  O   -0.813412
   161  H    0.024519
   162  H    0.149746
   163  H    0.018377
   164  H   -0.235445
   165  H    0.076149
   166  H    0.108443
   167  N   -0.145385
   168  C   -0.264422
   169  H    0.111096
   170  H    0.106049
   171  H    0.086540
   172  H    0.182459
   173  Ca   1.543330
   174  O   -0.814862
   175  H    0.402879
   176  H    0.427726
 Sum of ESP charges =   0.00000

 Normal termination of Gaussian 09 at Mon Sep 16 12:12:05 2019.
