 Gaussian 09, Revision D.01,
 Gaussian 09:  ES64L-G09RevD.01 24-Apr-2013

 ----------------------------------------------------------------------
 #maxdisk=50GB #B3LYP/SVP Density=Current scf=(tight) #IOP(5/87=12)Pop=
 (MK,readradii) iop(6/33=2) iop(6/42=6)
 ----------------------------------------------------------------------

 ------------
 SOL molecule
 ------------
 Symbolic Z-matrix:
 Charge =  0 Multiplicity = 1

                         Standard orientation:
 ---------------------------------------------------------------------
 Center     Atomic      Atomic             Coordinates (Angstroms)
 Number     Number       Type             X           Y           Z
 ---------------------------------------------------------------------
      1          6           0        2.183464    2.184484    5.289103
      2          6           0        1.475237    1.869725    3.983560
      3          8           0        2.202300    1.492473    3.074297
      4          1           0        3.261963    2.150064    5.134563
      5          1           0        1.897208    3.179701    5.627461
      6          1           0        1.902244    1.448347    6.042960
      7          7           0        0.141295    1.939281    4.002586
      8          6           0       -0.743865    1.988330    2.848166
      9          6           0       -0.741839    3.356527    2.187761
     10          8           0       -1.743456    4.070017    2.170599
     11          6           0       -2.157760    1.569507    3.235964
     12          6           0       -3.073842    1.430930    2.029195
     13          8           0       -4.298613    1.295945    2.229728
     14          8           0       -2.673066    1.257263    0.861882
     15          1           0       -0.282048    2.217731    4.870714
     16          1           0       -0.432462    1.240562    2.117913
     17          1           0       -2.520686    2.264680    3.994133
     18          1           0       -2.079074    0.617597    3.754978
     19          7           0        0.381666    3.814026    1.634200
     20          6           0        0.582394    5.156403    1.134265
     21          6           0       -0.469706    5.596293    0.117957
     22          8           0       -1.091011    6.644813    0.258966
     23          6           0        1.907945    5.180566    0.373588
     24          6           0        3.014143    4.746358    1.335665
     25          6           0        4.393053    5.166578    0.839359
     26          6           0        4.759546    4.814432   -0.602125
     27          7           0        5.491476    5.930854   -1.217253
     28          1           0        1.166526    3.184704    1.567504
     29          1           0        0.541177    5.875153    1.950292
     30          1           0        2.091386    6.188839    0.003948
     31          1           0        1.911149    4.415778   -0.405892
     32          1           0        2.932478    3.681393    1.542739
     33          1           0        2.927258    5.106966    2.356260
     34          1           0        5.236061    4.802605    1.430089
     35          1           0        4.339290    6.238940    1.012422
     36          1           0        3.874208    4.653014   -1.225599
     37          1           0        5.410138    3.946798   -0.659933
     38          1           0        5.408274    5.906509   -2.215544
     39          1           0        5.216205    6.863810   -0.927567
     40          1           0        6.478053    5.803681   -1.007985
     41          7           0       -0.862087    4.796391   -0.884637
     42          6           0       -1.895616    5.139793   -1.833527
     43          6           0       -3.336809    4.952307   -1.393400
     44          8           0       -4.217050    5.580123   -1.964121
     45          6           0       -1.600722    4.511586   -3.196499
     46          6           0       -1.328829    3.013777   -3.155989
     47          8           0       -1.909196    2.197655   -2.415367
     48          8           0       -0.525252    2.580601   -4.015071
     49          1           0       -0.377515    3.915818   -0.950831
     50          1           0       -1.851633    6.214077   -1.988704
     51          1           0       -0.701574    4.960867   -3.624378
     52          1           0       -2.454385    4.657726   -3.848344
     53          7           0       -3.574115    4.192906   -0.317530
     54          6           0       -4.903723    4.117498    0.256714
     55          6           0       -5.845468    3.050525   -0.285584
     56          8           0       -7.055979    3.122119   -0.113716
     57          1           0       -2.862984    3.637203    0.127091
     58          1           0       -5.414861    5.079301    0.186908
     59          1           0       -4.734430    3.888196    1.301396
     60          7           0       -5.375853    2.046765   -1.034200
     61          6           0       -6.264382    1.098667   -1.680597
     62          6           0       -6.605662   -0.032629   -0.727132
     63          8           0       -7.452910   -0.872968   -1.033405
     64          6           0       -5.725537    0.658117   -3.035020
     65          6           0       -4.640825   -0.406773   -2.892503
     66          7           0       -4.763952   -1.534245   -3.592608
     67          8           0       -3.790138   -0.300538   -2.010661
     68          1           0       -4.406819    2.163674   -1.307339
     69          1           0       -7.218679    1.584568   -1.842202
     70          1           0       -5.332274    1.552304   -3.518935
     71          1           0       -6.590424    0.292907   -3.582003
     72          1           0       -5.451287   -1.589849   -4.328323
     73          1           0       -3.920271   -2.076017   -3.539824
     74          7           0       -5.955427   -0.218420    0.423858
     75          6           0       -6.289625   -1.170948    1.462127
     76          6           0       -5.285485   -2.263006    1.762979
     77          8           0       -5.705980   -3.138431    2.518568
     78          1           0       -5.166058    0.400627    0.571763
     79          1           0       -7.237535   -1.669448    1.273808
     80          1           0       -6.404019   -0.595369    2.385611
     81          7           0       -4.054380   -2.197515    1.246171
     82          6           0       -3.087528   -3.245448    1.525516
     83          6           0       -1.705444   -2.612549    1.604150
     84          8           0       -1.474842   -1.548421    1.025570
     85          6           0       -2.958614   -4.209028    0.352743
     86          6           0       -4.280815   -4.737192   -0.130916
     87          6           0       -4.585527   -6.099260    0.025362
     88          6           0       -5.099661   -3.956802   -0.960001
     89          6           0       -5.713326   -6.670534   -0.567609
     90          6           0       -6.218767   -4.532517   -1.563205
     91          6           0       -6.587876   -5.872797   -1.334275
     92          8           0       -7.715920   -6.330028   -1.967170
     93          1           0       -3.811144   -1.285753    0.891030
     94          1           0       -3.331052   -3.624249    2.518897
     95          1           0       -2.286034   -5.042667    0.582269
     96          1           0       -2.514058   -3.708827   -0.502985
     97          1           0       -3.977565   -6.638965    0.746750
     98          1           0       -4.758652   -2.965104   -1.227674
     99          1           0       -5.994815   -7.674469   -0.302696
    100          1           0       -6.773298   -3.937661   -2.282678
    101          1           0       -8.192157   -5.587264   -2.342269
    102          7           0       -0.703953   -3.236699    2.237200
    103          6           0        0.694797   -2.863020    2.266575
    104          6           0        1.481760   -3.839945    1.394790
    105          8           0        1.417425   -5.053420    1.583306
    106          6           0        1.232286   -2.835092    3.698121
    107          6           0        0.369662   -1.945205    4.592258
    108          6           0        2.647329   -2.293378    3.551148
    109          6           0        0.743563   -2.206067    6.059006
    110          1           0       -0.814796   -3.994870    2.882483
    111          1           0        0.832018   -1.932406    1.715461
    112          1           0        1.284350   -3.845401    4.083042
    113          1           0       -0.644769   -2.280659    4.384172
    114          1           0        0.484766   -0.879156    4.413123
    115          1           0        3.243573   -2.828779    2.804597
    116          1           0        2.730476   -1.210344    3.513400
    117          1           0        3.159354   -2.569557    4.477353
    118          1           0       -0.033175   -1.826459    6.719820
    119          1           0        0.728567   -3.285229    6.172519
    120          1           0        1.685448   -1.852754    6.471343
    121          7           0        2.315995   -3.298890    0.500580
    122          6           0        3.076203   -3.940911   -0.549035
    123          6           0        4.558495   -3.664107   -0.426194
    124          8           0        4.931459   -2.784934    0.349598
    125          6           0        2.464824   -3.499841   -1.885288
    126          8           0        2.519279   -2.114229   -2.108031
    127          1           0        2.413562   -2.292721    0.498665
    128          1           0        2.982090   -5.027096   -0.480145
    129          1           0        1.428673   -3.825232   -1.881651
    130          1           0        2.968383   -4.108363   -2.639761
    131          1           0        1.792003   -1.641406   -1.699733
    132          7           0        5.401640   -4.486020   -1.063425
    133          6           0        6.840256   -4.283468   -1.082284
    134          6           0        7.271067   -2.925208   -1.618411
    135          8           0        8.018298   -2.174473   -1.006412
    136          6           0        7.548226   -5.420451   -1.824679
    137          1           0        4.962668   -5.160197   -1.671529
    138          1           0        7.189468   -4.378378   -0.050566
    139          1           0        7.147302   -6.354628   -1.437417
    140          1           0        7.105966   -5.403698   -2.813580
    141          1           0        8.628575   -5.299215   -1.672858
    142          7           0        6.638907   -2.447638   -2.694980
    143          6           0        6.840030   -1.150545   -3.311744
    144          6           0        6.527373    0.025736   -2.406920
    145          8           0        7.250156    1.020405   -2.498127
    146          6           0        6.011546   -1.222815   -4.590138
    147          1           0        6.050936   -3.068580   -3.237771
    148          1           0        7.926014   -1.079107   -3.397386
    149          1           0        4.966272   -1.368074   -4.349922
    150          1           0        6.129504   -0.336194   -5.216707
    151          1           0        6.284484   -2.110967   -5.165109
    152          7           0        5.650722   -0.187421   -1.417400
    153          6           0        5.351154    0.850753   -0.451298
    154          6           0        6.286446    0.733516    0.745984
    155          8           0        6.858595    1.742832    1.145893
    156          6           0        3.936282    0.696080    0.084904
    157          6           0        2.825573    1.064785   -0.901444
    158          6           0        1.410739    0.619525   -0.561606
    159          8           0        0.532004    1.503600   -0.460443
    160          8           0        1.058257   -0.577453   -0.537098
    161          1           0        5.162654   -1.061712   -1.472202
    162          1           0        5.558465    1.817565   -0.919483
    163          1           0        3.834273    1.425364    0.883803
    164          1           0        3.722642   -0.329569    0.387565
    165          1           0        3.164290    0.627833   -1.841095
    166          1           0        2.898755    2.150555   -0.948846
    167          7           0        6.407120   -0.450690    1.352609
    168          6           0        7.158618   -0.766970    2.548526
    169          1           0        8.224682   -0.730820    2.327390
    170          1           0        6.924933   -0.041264    3.327995
    171          1           0        6.892770   -1.767194    2.891571
    172          1           0        5.981811   -1.241573    0.904483
    173         20           0       -1.383098    0.032390   -1.106992
    174          8           0        0.101026    0.093163   -3.429724
    175          1           0       -0.121114    1.007443   -3.614514
    176          1           0        0.745272   -0.128899   -4.095558
 ---------------------------------------------------------------------

 SCF Done:  E(RB3LYP) =  -5333.60511706     A.U. after   18 cycles

 The electronic state is 1-A.
 Alpha  occ. eigenvalues -- -145.37538 -19.14903 -19.14678 -19.14129 -19.13183
 Alpha  occ. eigenvalues --  -19.12638 -19.12039 -19.11134 -19.10896 -19.10667
 Alpha  occ. eigenvalues --  -19.10405 -19.10315 -19.08906 -19.08755 -19.08701
 Alpha  occ. eigenvalues --  -19.06618 -19.06097 -19.05078 -19.04478 -19.04296
 Alpha  occ. eigenvalues --  -19.03970 -19.03602 -19.03564 -19.01483 -15.43274
 Alpha  occ. eigenvalues --  -14.57461 -14.40778 -14.38254 -14.37888 -14.37399
 Alpha  occ. eigenvalues --  -14.36796 -14.36505 -14.36485 -14.34970 -14.33785
 Alpha  occ. eigenvalues --  -14.33262 -14.32540 -14.29957 -14.29844 -14.29513
 Alpha  occ. eigenvalues --  -12.56888 -12.56857 -12.56833 -10.33563 -10.32832
 Alpha  occ. eigenvalues --  -10.31285 -10.30936 -10.30811 -10.29644 -10.29170
 Alpha  occ. eigenvalues --  -10.29039 -10.28724 -10.27310 -10.27279 -10.27190
 Alpha  occ. eigenvalues --  -10.26694 -10.26616 -10.25990 -10.25809 -10.25336
 Alpha  occ. eigenvalues --  -10.24892 -10.24164 -10.24134 -10.23906 -10.23889
 Alpha  occ. eigenvalues --  -10.23715 -10.23386 -10.23361 -10.23326 -10.23305
 Alpha  occ. eigenvalues --  -10.23058 -10.23024 -10.22841 -10.22473 -10.22049
 Alpha  occ. eigenvalues --  -10.21976 -10.21601 -10.20553 -10.19937 -10.19903
 Alpha  occ. eigenvalues --  -10.19850 -10.19810 -10.19806 -10.19318 -10.19298
 Alpha  occ. eigenvalues --  -10.18842 -10.18106 -10.17915 -10.17892 -10.17693
 Alpha  occ. eigenvalues --  -10.17597 -10.17588 -10.17505 -10.17393 -10.16886
 Alpha  occ. eigenvalues --  -10.16587 -10.15748  -1.80152  -1.12853  -1.08206
 Alpha  occ. eigenvalues --   -1.07753  -1.07593  -1.07513  -1.05679  -1.05633
 Alpha  occ. eigenvalues --   -1.05483  -1.04497  -1.03879  -1.03421  -1.03378
 Alpha  occ. eigenvalues --   -1.03376  -1.02422  -1.02270  -1.01602  -1.00217
 Alpha  occ. eigenvalues --   -0.99694  -0.99352  -0.98257  -0.98067  -0.97657
 Alpha  occ. eigenvalues --   -0.97484  -0.97314  -0.96928  -0.95127  -0.94140
 Alpha  occ. eigenvalues --   -0.94015  -0.93732  -0.93416  -0.93368  -0.92944
 Alpha  occ. eigenvalues --   -0.92330  -0.90576  -0.90351  -0.89000  -0.88601
 Alpha  occ. eigenvalues --   -0.87950  -0.87478  -0.86920  -0.86153  -0.85513
 Alpha  occ. eigenvalues --   -0.83656  -0.83274  -0.82445  -0.81888  -0.80986
 Alpha  occ. eigenvalues --   -0.79238  -0.78691  -0.78361  -0.78202  -0.76829
 Alpha  occ. eigenvalues --   -0.76634  -0.74882  -0.74356  -0.73952  -0.72993
 Alpha  occ. eigenvalues --   -0.72802  -0.72623  -0.72044  -0.71803  -0.70451
 Alpha  occ. eigenvalues --   -0.70250  -0.69620  -0.69414  -0.68391  -0.68236
 Alpha  occ. eigenvalues --   -0.67968  -0.67138  -0.65535  -0.65343  -0.65200
 Alpha  occ. eigenvalues --   -0.64520  -0.63317  -0.63037  -0.62940  -0.62531
 Alpha  occ. eigenvalues --   -0.62131  -0.61688  -0.61050  -0.60553  -0.60321
 Alpha  occ. eigenvalues --   -0.60265  -0.59973  -0.59929  -0.59151  -0.58225
 Alpha  occ. eigenvalues --   -0.58112  -0.57998  -0.57527  -0.57501  -0.56714
 Alpha  occ. eigenvalues --   -0.56519  -0.56041  -0.55248  -0.55169  -0.54899
 Alpha  occ. eigenvalues --   -0.54640  -0.54085  -0.53527  -0.53416  -0.53368
 Alpha  occ. eigenvalues --   -0.53081  -0.52820  -0.52589  -0.52413  -0.51576
 Alpha  occ. eigenvalues --   -0.51395  -0.51163  -0.50889  -0.50752  -0.50237
 Alpha  occ. eigenvalues --   -0.50109  -0.50001  -0.49858  -0.49508  -0.49172
 Alpha  occ. eigenvalues --   -0.48996  -0.48848  -0.48800  -0.48582  -0.48470
 Alpha  occ. eigenvalues --   -0.48134  -0.47779  -0.47581  -0.47213  -0.46994
 Alpha  occ. eigenvalues --   -0.46887  -0.46474  -0.46338  -0.46263  -0.46136
 Alpha  occ. eigenvalues --   -0.45906  -0.45805  -0.45767  -0.45574  -0.45491
 Alpha  occ. eigenvalues --   -0.45455  -0.45143  -0.45033  -0.44900  -0.44782
 Alpha  occ. eigenvalues --   -0.44450  -0.44099  -0.43935  -0.43741  -0.43581
 Alpha  occ. eigenvalues --   -0.43514  -0.43369  -0.42887  -0.42661  -0.42461
 Alpha  occ. eigenvalues --   -0.42423  -0.42362  -0.42144  -0.42049  -0.41927
 Alpha  occ. eigenvalues --   -0.41824  -0.41582  -0.41530  -0.41313  -0.41295
 Alpha  occ. eigenvalues --   -0.41218  -0.41004  -0.40960  -0.40715  -0.40602
 Alpha  occ. eigenvalues --   -0.40569  -0.40434  -0.40263  -0.40154  -0.39956
 Alpha  occ. eigenvalues --   -0.39907  -0.39562  -0.39514  -0.39382  -0.39331
 Alpha  occ. eigenvalues --   -0.39213  -0.39011  -0.38926  -0.38883  -0.38681
 Alpha  occ. eigenvalues --   -0.38485  -0.38357  -0.38279  -0.38139  -0.37894
 Alpha  occ. eigenvalues --   -0.37787  -0.37461  -0.37333  -0.37212  -0.37102
 Alpha  occ. eigenvalues --   -0.36927  -0.36684  -0.36413  -0.36080  -0.36050
 Alpha  occ. eigenvalues --   -0.35978  -0.35807  -0.35662  -0.35249  -0.35171
 Alpha  occ. eigenvalues --   -0.34866  -0.34828  -0.34663  -0.34367  -0.34055
 Alpha  occ. eigenvalues --   -0.33757  -0.33675  -0.33536  -0.32990  -0.32948
 Alpha  occ. eigenvalues --   -0.32835  -0.32510  -0.32384  -0.32125  -0.32028
 Alpha  occ. eigenvalues --   -0.31772  -0.31439  -0.31164  -0.30747  -0.30515
 Alpha  occ. eigenvalues --   -0.29753  -0.29487  -0.29366  -0.28941  -0.28863
 Alpha  occ. eigenvalues --   -0.28833  -0.28643  -0.28567  -0.28088  -0.27586
 Alpha  occ. eigenvalues --   -0.27500  -0.26742  -0.26323  -0.26200  -0.26068
 Alpha  occ. eigenvalues --   -0.25591  -0.24993  -0.24626  -0.24623  -0.24595
 Alpha  occ. eigenvalues --   -0.23928  -0.23855  -0.23814  -0.23454  -0.22955
 Alpha  occ. eigenvalues --   -0.22830  -0.22535  -0.22172  -0.22155  -0.21413
 Alpha  occ. eigenvalues --   -0.20920  -0.20391  -0.20099  -0.19730  -0.19507
 Alpha  occ. eigenvalues --   -0.19382  -0.18671  -0.17305
 Alpha virt. eigenvalues --   -0.09458  -0.04239  -0.03712  -0.03382  -0.02225
 Alpha virt. eigenvalues --   -0.01325  -0.01286  -0.00781  -0.00655  -0.00178
 Alpha virt. eigenvalues --    0.00000   0.00154   0.00219   0.01229   0.01488

 Mulliken charges:
               1
     1  C    0.038683
     2  C    0.033582
     3  O   -0.292298
     4  H    0.029493
     5  H    0.020707
     6  H    0.032529
     7  N   -0.114649
     8  C    0.053810
     9  C    0.072013
    10  O   -0.265037
    11  C    0.107592
    12  C    0.141122
    13  O   -0.375951
    14  O   -0.460874
    15  H    0.119249
    16  H    0.043572
    17  H   -0.002007
    18  H   -0.001998
    19  N   -0.121454
    20  C    0.173907
    21  C    0.040128
    22  O   -0.257643
    23  C   -0.043725
    24  C    0.011476
    25  C   -0.035662
    26  C    0.024376
    27  N    0.067320
    28  H    0.135307
    29  H    0.000653
    30  H   -0.004743
    31  H    0.036598
    32  H    0.035302
    33  H    0.014101
    34  H    0.046976
    35  H    0.011101
    36  H    0.074487
    37  H    0.096740
    38  H    0.184757
    39  H    0.184434
    40  H    0.199482
    41  N   -0.155261
    42  C    0.144806
    43  C    0.068503
    44  O   -0.285619
    45  C    0.111343
    46  C    0.088783
    47  O   -0.443821
    48  O   -0.405536
    49  H    0.139466
    50  H    0.006968
    51  H   -0.018168
    52  H    0.026988
    53  N   -0.175480
    54  C    0.243622
    55  C    0.029645
    56  O   -0.296255
    57  H    0.152153
    58  H    0.026259
    59  H    0.036179
    60  N   -0.174835
    61  C    0.146348
    62  C    0.026262
    63  O   -0.319340
    64  C    0.103822
    65  C    0.082723
    66  N   -0.022496
    67  O   -0.366941
    68  H    0.137538
    69  H    0.027455
    70  H    0.054672
    71  H    0.008340
    72  H    0.140291
    73  H    0.128822
    74  N   -0.165111
    75  C    0.249382
    76  C    0.026899
    77  O   -0.301262
    78  H    0.153058
    79  H    0.036809
    80  H    0.043878
    81  N   -0.160198
    82  C    0.143804
    83  C    0.102008
    84  O   -0.355186
    85  C    0.156442
    86  C   -0.025972
    87  C    0.000709
    88  C    0.025276
    89  C   -0.032845
    90  C   -0.043247
    91  C    0.196305
    92  O   -0.200832
    93  H    0.143777
    94  H    0.016837
    95  H   -0.000279
    96  H   -0.033051
    97  H   -0.031580
    98  H   -0.052570
    99  H   -0.027643
   100  H   -0.043044
   101  H    0.176136
   102  N   -0.110291
   103  C    0.121974
   104  C    0.047266
   105  O   -0.286362
   106  C   -0.099953
   107  C    0.053479
   108  C    0.032660
   109  C    0.023402
   110  H    0.126525
   111  H    0.018109
   112  H   -0.008549
   113  H   -0.013313
   114  H    0.016974
   115  H    0.016854
   116  H    0.031047
   117  H   -0.016459
   118  H    0.004872
   119  H   -0.008296
   120  H    0.015841
   121  N   -0.137543
   122  C    0.064080
   123  C    0.102584
   124  O   -0.283267
   125  C    0.274953
   126  O   -0.343715
   127  H    0.157026
   128  H    0.017814
   129  H    0.005687
   130  H   -0.035020
   131  H    0.181918
   132  N   -0.116094
   133  C    0.073119
   134  C    0.058410
   135  O   -0.241694
   136  C    0.058357
   137  H    0.117167
   138  H    0.025235
   139  H    0.022723
   140  H   -0.007348
   141  H    0.063854
   142  N   -0.157327
   143  C    0.096469
   144  C    0.069105
   145  O   -0.292746
   146  C    0.033526
   147  H    0.098640
   148  H    0.026826
   149  H    0.022493
   150  H    0.038387
   151  H    0.015908
   152  N   -0.140347
   153  C    0.122471
   154  C    0.078901
   155  O   -0.302543
   156  C   -0.015898
   157  C    0.109078
   158  C    0.188760
   159  O   -0.417276
   160  O   -0.455927
   161  H    0.125107
   162  H   -0.031887
   163  H    0.027556
   164  H    0.014414
   165  H   -0.003713
   166  H   -0.055996
   167  N   -0.156929
   168  C    0.144043
   169  H    0.027146
   170  H    0.018982
   171  H    0.017747
   172  H    0.128497
   173  Ca   1.307105
   174  O   -0.331383
   175  H    0.146148
   176  H    0.161443
 Sum of Mulliken charges =   0.00000

 Dipole moment (field-independent basis, Debye):
    X=             32.9710    Y=             -0.1944    Z=             -7.7742  Tot=             33.8757
 Quadrupole moment (field-independent basis, Debye-Ang):
   XX=           -629.9036   YY=           -494.4387   ZZ=           -510.1829
   XY=            109.3279   XZ=             -1.1774   YZ=             24.9901

 ESP charges:
               1
     1  C   -0.451110
     2  C    0.781213
     3  O   -0.611100
     4  H    0.134953
     5  H    0.097111
     6  H    0.118570
     7  N   -0.753606
     8  C    0.202561
     9  C    0.595518
    10  O   -0.500129
    11  C   -0.229109
    12  C    0.608218
    13  O   -0.620467
    14  O   -0.602195
    15  H    0.375781
    16  H    0.067917
    17  H    0.071099
    18  H    0.072577
    19  N   -0.475011
    20  C    0.125846
    21  C    0.467972
    22  O   -0.547117
    23  C   -0.479763
    24  C    0.357847
    25  C   -0.218417
    26  C    0.417501
    27  N   -0.581212
    28  H    0.279041
    29  H    0.074109
    30  H    0.123603
    31  H    0.149022
    32  H   -0.068136
    33  H   -0.005364
    34  H    0.047202
    35  H    0.030396
    36  H   -0.002085
    37  H    0.004293
    38  H    0.367664
    39  H    0.359107
    40  H    0.372329
    41  N   -0.339848
    42  C    0.087189
    43  C    0.422023
    44  O   -0.556294
    45  C   -0.417943
    46  C    0.847636
    47  O   -0.716885
    48  O   -0.726347
    49  H    0.222000
    50  H    0.103352
    51  H    0.088770
    52  H    0.139644
    53  N    0.111044
    54  C   -0.437332
    55  C    0.695904
    56  O   -0.589741
    57  H    0.023271
    58  H    0.161049
    59  H    0.172971
    60  N   -0.513366
    61  C    0.343202
    62  C    0.268566
    63  O   -0.561057
    64  C   -0.428157
    65  C    0.661448
    66  N   -0.676701
    67  O   -0.636058
    68  H    0.234295
    69  H    0.062659
    70  H    0.157322
    71  H    0.113305
    72  H    0.365524
    73  H    0.326402
    74  N    0.196749
    75  C   -0.389374
    76  C    0.745248
    77  O   -0.587813
    78  H   -0.012953
    79  H    0.157461
    80  H    0.130617
    81  N   -0.501549
    82  C    0.212895
    83  C    0.590159
    84  O   -0.549891
    85  C   -0.227403
    86  C    0.086021
    87  C   -0.169019
    88  C   -0.032027
    89  C   -0.313673
    90  C   -0.420861
    91  C    0.486263
    92  O   -0.581687
    93  H    0.221502
    94  H    0.033996
    95  H    0.072579
    96  H    0.054189
    97  H    0.132281
    98  H    0.103134
    99  H    0.173387
   100  H    0.159266
   101  H    0.419821
   102  N   -0.520907
   103  C   -0.187060
   104  C    0.618402
   105  O   -0.571364
   106  C    0.326285
   107  C    0.058162
   108  C   -0.320366
   109  C   -0.251685
   110  H    0.300981
   111  H    0.094484
   112  H   -0.010686
   113  H   -0.003241
   114  H    0.036867
   115  H    0.068265
   116  H    0.103101
   117  H    0.036686
   118  H    0.055021
   119  H    0.040657
   120  H    0.069499
   121  N   -0.337707
   122  C   -0.099538
   123  C    0.586138
   124  O   -0.456778
   125  C    0.265558
   126  O   -0.657838
   127  H    0.323746
   128  H    0.066806
   129  H    0.009117
   130  H   -0.024056
   131  H    0.471607
   132  N   -0.541408
   133  C    0.206691
   134  C    0.428434
   135  O   -0.504551
   136  C   -0.426262
   137  H    0.330843
   138  H    0.075339
   139  H    0.132200
   140  H    0.086988
   141  H    0.160475
   142  N   -0.332213
   143  C   -0.002543
   144  C    0.468111
   145  O   -0.548418
   146  C   -0.349044
   147  H    0.260279
   148  H    0.119904
   149  H    0.107878
   150  H    0.123978
   151  H    0.096054
   152  N   -0.037610
   153  C   -0.185938
   154  C    0.593464
   155  O   -0.572569
   156  C    0.045928
   157  C   -0.051550
   158  C    0.925364
   159  O   -0.831710
   160  O   -0.834736
   161  H    0.122792
   162  H    0.060265
   163  H    0.027833
   164  H   -0.103587
   165  H   -0.034321
   166  H   -0.029143
   167  N   -0.181510
   168  C   -0.294600
   169  H    0.116040
   170  H    0.110382
   171  H    0.127873
   172  H    0.160967
   173  Ca   1.603073
   174  O   -0.936805
   175  H    0.432589
   176  H    0.430823
 Sum of ESP charges =   0.00000

 Normal termination of Gaussian 09 at Mon Sep 16 15:04:25 2019.
