 Gaussian 09, Revision D.01,
 Gaussian 09:  ES64L-G09RevD.01 24-Apr-2013

 ----------------------------------------------------------------------
 #maxdisk=50GB #B3LYP/SVP Density=Current scf=(tight) #IOP(5/87=12)Pop=
 (MK,readradii) iop(6/33=2) iop(6/42=6)
 ----------------------------------------------------------------------

 ------------
 SOL molecule
 ------------
 Symbolic Z-matrix:
 Charge =  0 Multiplicity = 1

                         Standard orientation:
 ---------------------------------------------------------------------
 Center     Atomic      Atomic             Coordinates (Angstroms)
 Number     Number       Type             X           Y           Z
 ---------------------------------------------------------------------
      1          6           0       -2.181609   -2.480852    5.270801
      2          6           0       -1.413956   -2.376437    3.953719
      3          8           0       -2.004576   -2.345025    2.877391
      4          1           0       -3.197540   -2.824146    5.072948
      5          1           0       -1.680469   -3.190750    5.928981
      6          1           0       -2.216863   -1.502018    5.750021
      7          7           0       -0.115978   -2.105115    4.012354
      8          6           0        0.642838   -2.054250    2.773721
      9          6           0        0.770547   -3.454721    2.204361
     10          8           0        1.407753   -4.332345    2.764399
     11          6           0        2.017847   -1.471096    3.083208
     12          6           0        2.861728   -1.160905    1.855265
     13          8           0        4.018667   -0.724472    2.061705
     14          8           0        2.469976   -1.540204    0.731315
     15          1           0        0.289877   -1.944662    4.926048
     16          1           0        0.170447   -1.437673    2.005620
     17          1           0        2.608250   -2.256675    3.569510
     18          1           0        2.103186   -0.595060    3.725220
     19          7           0        0.125127   -3.658794    1.046523
     20          6           0       -0.209455   -4.975336    0.529540
     21          6           0        0.807180   -5.581391   -0.426101
     22          8           0        0.599204   -6.687151   -0.936633
     23          6           0       -1.561868   -4.670147   -0.106653
     24          6           0       -2.441700   -5.902076   -0.283133
     25          6           0       -3.891456   -5.536280   -0.632705
     26          6           0       -4.108643   -4.713962   -1.893190
     27          7           0       -3.887061   -5.490886   -3.116215
     28          1           0       -0.396275   -2.852216    0.736568
     29          1           0       -0.285748   -5.706053    1.332554
     30          1           0       -1.335110   -4.177249   -1.052503
     31          1           0       -2.237586   -3.977187    0.387119
     32          1           0       -2.591661   -6.443588    0.650932
     33          1           0       -2.009472   -6.592345   -1.000076
     34          1           0       -4.395695   -4.989557    0.173172
     35          1           0       -4.443061   -6.468974   -0.736213
     36          1           0       -3.316743   -3.965606   -1.924133
     37          1           0       -5.116124   -4.294455   -1.873292
     38          1           0       -2.917320   -5.697312   -3.327613
     39          1           0       -4.315079   -6.399411   -3.040162
     40          1           0       -4.189148   -4.996925   -3.948828
     41          7           0        1.975182   -4.946786   -0.540761
     42          6           0        3.252513   -5.304131   -1.129005
     43          6           0        4.493957   -4.792787   -0.409391
     44          8           0        5.584875   -5.178767   -0.821480
     45          6           0        3.363412   -4.831624   -2.576015
     46          6           0        3.187071   -3.344731   -2.883676
     47          8           0        3.121017   -3.010262   -4.082828
     48          8           0        3.171947   -2.484615   -1.982138
     49          1           0        1.960881   -3.985912   -0.219178
     50          1           0        3.275623   -6.384670   -0.984431
     51          1           0        2.643107   -5.448573   -3.112704
     52          1           0        4.312022   -5.243140   -2.910667
     53          7           0        4.433173   -3.941998    0.623403
     54          6           0        5.572263   -3.474267    1.382023
     55          6           0        6.261942   -2.432422    0.526509
     56          8           0        7.480853   -2.284480    0.680675
     57          1           0        3.518527   -3.620439    0.905575
     58          1           0        6.308039   -4.249220    1.566904
     59          1           0        5.293320   -3.213362    2.408239
     60          7           0        5.604559   -1.691467   -0.364912
     61          6           0        6.352522   -0.760249   -1.198869
     62          6           0        6.572508    0.567022   -0.488617
     63          8           0        6.935021    1.560925   -1.123078
     64          6           0        5.691006   -0.663084   -2.567173
     65          6           0        4.667314    0.447024   -2.735446
     66          7           0        4.829163    1.306449   -3.749445
     67          8           0        3.687573    0.592125   -2.013814
     68          1           0        4.654392   -1.922481   -0.614342
     69          1           0        7.322583   -1.187790   -1.446440
     70          1           0        5.273000   -1.560664   -3.014074
     71          1           0        6.512364   -0.404351   -3.237493
     72          1           0        5.488717    1.102566   -4.482261
     73          1           0        4.331624    2.186279   -3.696957
     74          7           0        6.345415    0.688960    0.820795
     75          6           0        6.387622    1.872898    1.642627
     76          6           0        5.168975    2.780469    1.718223
     77          8           0        5.234983    3.767710    2.454361
     78          1           0        5.936041   -0.075441    1.340221
     79          1           0        7.095039    2.560028    1.177963
     80          1           0        6.813999    1.619250    2.616314
     81          7           0        4.067953    2.559927    1.002603
     82          6           0        2.835991    3.320928    0.951156
     83          6           0        1.524346    2.543529    0.939417
     84          8           0        1.480194    1.373891    0.571998
     85          6           0        2.924630    4.161190   -0.325089
     86          6           0        4.056979    5.140753   -0.516777
     87          6           0        4.076659    6.368696    0.146449
     88          6           0        5.185924    4.745698   -1.254552
     89          6           0        5.083626    7.300755   -0.140227
     90          6           0        6.300316    5.573686   -1.396213
     91          6           0        6.218074    6.879302   -0.852061
     92          8           0        7.283858    7.711934   -1.075060
     93          1           0        4.043495    1.702656    0.459290
     94          1           0        2.799214    4.028821    1.779489
     95          1           0        2.009239    4.742105   -0.472724
     96          1           0        3.010492    3.482865   -1.176149
     97          1           0        3.255900    6.665089    0.787859
     98          1           0        5.282729    3.763614   -1.680745
     99          1           0        5.076425    8.268833    0.333664
    100          1           0        7.235247    5.323790   -1.875750
    101          1           0        7.884686    7.433324   -1.763524
    102          7           0        0.442718    3.232478    1.299319
    103          6           0       -0.903438    2.698664    1.415546
    104          6           0       -1.792254    3.462299    0.449800
    105          8           0       -2.168590    4.583667    0.787890
    106          6           0       -1.505497    2.654467    2.816607
    107          6           0       -0.505990    2.054547    3.794401
    108          6           0       -2.750715    1.782360    2.983524
    109          6           0       -0.945574    1.994042    5.252346
    110          1           0        0.565290    4.171894    1.650992
    111          1           0       -0.813111    1.660871    1.092088
    112          1           0       -1.691939    3.687252    3.128369
    113          1           0        0.403195    2.632965    3.650472
    114          1           0       -0.510496    1.037564    3.412004
    115          1           0       -3.482342    2.056635    2.226625
    116          1           0       -2.473550    0.734960    2.949890
    117          1           0       -3.356185    2.055966    3.849056
    118          1           0       -0.830514    2.933099    5.794133
    119          1           0       -1.983863    1.697126    5.413271
    120          1           0       -0.263265    1.329754    5.769334
    121          7           0       -2.420227    2.794969   -0.516234
    122          6           0       -3.503239    3.434754   -1.235304
    123          6           0       -4.875980    3.271471   -0.597636
    124          8           0       -5.125899    2.418596    0.256674
    125          6           0       -3.617123    2.841515   -2.635874
    126          8           0       -4.055688    1.503439   -2.485832
    127          1           0       -2.219110    1.810803   -0.627444
    128          1           0       -3.270357    4.489050   -1.283549
    129          1           0       -2.649886    2.834413   -3.125774
    130          1           0       -4.312225    3.306367   -3.329954
    131          1           0       -3.309512    0.966778   -2.214877
    132          7           0       -5.811413    4.071804   -1.119107
    133          6           0       -7.190266    4.047489   -0.670252
    134          6           0       -7.810485    2.684844   -0.957701
    135          8           0       -8.646636    2.263986   -0.156246
    136          6           0       -7.998639    5.193577   -1.263899
    137          1           0       -5.549891    4.809694   -1.745944
    138          1           0       -7.149169    4.061471    0.422321
    139          1           0       -9.004784    5.113024   -0.835665
    140          1           0       -7.589809    6.130590   -0.886718
    141          1           0       -8.183416    5.302392   -2.339825
    142          7           0       -7.506845    1.930251   -2.009648
    143          6           0       -8.064901    0.612191   -2.245638
    144          6           0       -7.484190   -0.405446   -1.272557
    145          8           0       -8.303876   -1.161758   -0.761963
    146          6           0       -7.783684    0.179939   -3.670270
    147          1           0       -6.707144    2.265654   -2.543392
    148          1           0       -9.144596    0.719905   -2.122931
    149          1           0       -6.731010    0.302484   -3.934578
    150          1           0       -7.993878   -0.891930   -3.741089
    151          1           0       -8.327882    0.821218   -4.363314
    152          7           0       -6.202504   -0.325491   -0.904061
    153          6           0       -5.577440   -1.144413    0.115332
    154          6           0       -6.255367   -0.856366    1.450376
    155          8           0       -6.484130   -1.719360    2.297613
    156          6           0       -4.102299   -0.891162    0.418684
    157          6           0       -3.199905   -1.355875   -0.727407
    158          6           0       -1.847533   -0.682695   -0.868900
    159          8           0       -1.725867    0.241768   -1.700263
    160          8           0       -0.844540   -1.125858   -0.260450
    161          1           0       -5.641331    0.432794   -1.257598
    162          1           0       -5.780100   -2.202238   -0.066149
    163          1           0       -3.760511   -1.255478    1.382508
    164          1           0       -3.882452    0.175486    0.455159
    165          1           0       -3.736440   -1.254741   -1.671018
    166          1           0       -3.020647   -2.431620   -0.688166
    167          7           0       -6.681649    0.381283    1.713073
    168          6           0       -7.378983    0.789860    2.916604
    169          1           0       -8.422487    0.480745    2.854592
    170          1           0       -6.913162    0.321553    3.783772
    171          1           0       -7.327658    1.874051    3.016307
    172          1           0       -6.655461    0.972956    0.902556
    173         20           0        1.395838   -0.628573   -1.339761
    174          8           0        0.841064    1.764760   -2.337098
    175          1           0        1.290326    2.603460   -2.207303
    176          1           0        0.353669    1.872451   -3.157249
 ---------------------------------------------------------------------

 SCF Done:  E(RB3LYP) =  -5333.56701192     A.U. after   18 cycles

 The electronic state is 1-A.
 Alpha  occ. eigenvalues -- -145.40517 -19.19402 -19.15666 -19.14747 -19.13792
 Alpha  occ. eigenvalues --  -19.12721 -19.12604 -19.12524 -19.11281 -19.10956
 Alpha  occ. eigenvalues --  -19.10478 -19.09934 -19.09171 -19.08971 -19.08492
 Alpha  occ. eigenvalues --  -19.06274 -19.06232 -19.05858 -19.05600 -19.05490
 Alpha  occ. eigenvalues --  -19.05405 -19.03824 -19.02988 -19.02845 -15.46242
 Alpha  occ. eigenvalues --  -14.58130 -14.39432 -14.38085 -14.37471 -14.37071
 Alpha  occ. eigenvalues --  -14.36599 -14.35754 -14.35056 -14.33870 -14.33708
 Alpha  occ. eigenvalues --  -14.33217 -14.31909 -14.31342 -14.31313 -14.29822
 Alpha  occ. eigenvalues --  -12.59874 -12.59826 -12.59786 -10.34099 -10.31901
 Alpha  occ. eigenvalues --  -10.31368 -10.31077 -10.29626 -10.29551 -10.29357
 Alpha  occ. eigenvalues --  -10.28806 -10.27818 -10.27796 -10.27463 -10.26756
 Alpha  occ. eigenvalues --  -10.26570 -10.26471 -10.26061 -10.25617 -10.25325
 Alpha  occ. eigenvalues --  -10.25247 -10.24892 -10.24523 -10.24273 -10.24165
 Alpha  occ. eigenvalues --  -10.24118 -10.24068 -10.24054 -10.23867 -10.23780
 Alpha  occ. eigenvalues --  -10.23267 -10.22908 -10.22400 -10.22287 -10.21558
 Alpha  occ. eigenvalues --  -10.21329 -10.21310 -10.20867 -10.20848 -10.20523
 Alpha  occ. eigenvalues --  -10.20054 -10.19832 -10.19787 -10.19108 -10.18877
 Alpha  occ. eigenvalues --  -10.18515 -10.18503 -10.18364 -10.18196 -10.18025
 Alpha  occ. eigenvalues --  -10.17800 -10.17782 -10.17759 -10.17534 -10.17174
 Alpha  occ. eigenvalues --  -10.15922 -10.15311  -1.82986  -1.13471  -1.10624
 Alpha  occ. eigenvalues --   -1.10404  -1.10109  -1.07355  -1.06857  -1.05631
 Alpha  occ. eigenvalues --   -1.05166  -1.04672  -1.04261  -1.04010  -1.04001
 Alpha  occ. eigenvalues --   -1.03283  -1.03024  -1.02803  -1.01829  -1.01075
 Alpha  occ. eigenvalues --   -0.99716  -0.99694  -0.99485  -0.99071  -0.98889
 Alpha  occ. eigenvalues --   -0.98771  -0.97114  -0.97010  -0.96409  -0.94814
 Alpha  occ. eigenvalues --   -0.94138  -0.93633  -0.92984  -0.92295  -0.91409
 Alpha  occ. eigenvalues --   -0.90491  -0.90469  -0.90087  -0.88915  -0.88701
 Alpha  occ. eigenvalues --   -0.88510  -0.88183  -0.87952  -0.87744  -0.86490
 Alpha  occ. eigenvalues --   -0.83975  -0.82736  -0.82021  -0.81802  -0.81371
 Alpha  occ. eigenvalues --   -0.79377  -0.78622  -0.77907  -0.77772  -0.76089
 Alpha  occ. eigenvalues --   -0.75898  -0.75214  -0.74953  -0.74246  -0.73345
 Alpha  occ. eigenvalues --   -0.72963  -0.72596  -0.71710  -0.70899  -0.70767
 Alpha  occ. eigenvalues --   -0.69978  -0.69852  -0.69226  -0.69118  -0.68409
 Alpha  occ. eigenvalues --   -0.68064  -0.66707  -0.65724  -0.65388  -0.64897
 Alpha  occ. eigenvalues --   -0.64849  -0.64417  -0.63641  -0.63431  -0.62881
 Alpha  occ. eigenvalues --   -0.61735  -0.61105  -0.60887  -0.60851  -0.60232
 Alpha  occ. eigenvalues --   -0.60171  -0.59068  -0.58946  -0.58873  -0.58451
 Alpha  occ. eigenvalues --   -0.58224  -0.57695  -0.57138  -0.56821  -0.56420
 Alpha  occ. eigenvalues --   -0.56137  -0.55992  -0.55856  -0.55529  -0.55193
 Alpha  occ. eigenvalues --   -0.55014  -0.54835  -0.54686  -0.54418  -0.54342
 Alpha  occ. eigenvalues --   -0.54012  -0.53892  -0.53069  -0.52601  -0.52302
 Alpha  occ. eigenvalues --   -0.52119  -0.51414  -0.51202  -0.51029  -0.50335
 Alpha  occ. eigenvalues --   -0.50126  -0.49932  -0.49572  -0.49313  -0.49190
 Alpha  occ. eigenvalues --   -0.49153  -0.49025  -0.48804  -0.48341  -0.48231
 Alpha  occ. eigenvalues --   -0.48187  -0.47958  -0.47918  -0.47498  -0.47220
 Alpha  occ. eigenvalues --   -0.47148  -0.46890  -0.46688  -0.46282  -0.46188
 Alpha  occ. eigenvalues --   -0.46051  -0.45866  -0.45819  -0.45693  -0.45445
 Alpha  occ. eigenvalues --   -0.45216  -0.45165  -0.45120  -0.44825  -0.44451
 Alpha  occ. eigenvalues --   -0.44372  -0.44199  -0.44065  -0.43706  -0.43404
 Alpha  occ. eigenvalues --   -0.43321  -0.43237  -0.43045  -0.42856  -0.42773
 Alpha  occ. eigenvalues --   -0.42538  -0.42432  -0.42344  -0.42232  -0.41952
 Alpha  occ. eigenvalues --   -0.41863  -0.41761  -0.41599  -0.41492  -0.41243
 Alpha  occ. eigenvalues --   -0.41181  -0.40989  -0.40894  -0.40675  -0.40579
 Alpha  occ. eigenvalues --   -0.40425  -0.40304  -0.40255  -0.40190  -0.40093
 Alpha  occ. eigenvalues --   -0.39990  -0.39876  -0.39655  -0.39597  -0.39408
 Alpha  occ. eigenvalues --   -0.39384  -0.39055  -0.38802  -0.38758  -0.38548
 Alpha  occ. eigenvalues --   -0.38531  -0.38438  -0.38161  -0.38062  -0.37864
 Alpha  occ. eigenvalues --   -0.37591  -0.37475  -0.37288  -0.37019  -0.36883
 Alpha  occ. eigenvalues --   -0.36812  -0.36744  -0.36592  -0.36520  -0.36441
 Alpha  occ. eigenvalues --   -0.36329  -0.36038  -0.35919  -0.35865  -0.35739
 Alpha  occ. eigenvalues --   -0.35569  -0.35488  -0.35236  -0.34843  -0.34652
 Alpha  occ. eigenvalues --   -0.34390  -0.34165  -0.33943  -0.33453  -0.33276
 Alpha  occ. eigenvalues --   -0.32959  -0.32932  -0.32285  -0.32188  -0.32070
 Alpha  occ. eigenvalues --   -0.31977  -0.31627  -0.31230  -0.30818  -0.30728
 Alpha  occ. eigenvalues --   -0.30326  -0.30128  -0.29805  -0.29314  -0.29070
 Alpha  occ. eigenvalues --   -0.28617  -0.28276  -0.28195  -0.27792  -0.27621
 Alpha  occ. eigenvalues --   -0.27518  -0.26840  -0.26473  -0.26061  -0.26047
 Alpha  occ. eigenvalues --   -0.25474  -0.25060  -0.24894  -0.24766  -0.24722
 Alpha  occ. eigenvalues --   -0.24029  -0.23621  -0.23522  -0.23303  -0.23274
 Alpha  occ. eigenvalues --   -0.22689  -0.22639  -0.22259  -0.22076  -0.21971
 Alpha  occ. eigenvalues --   -0.21788  -0.21307  -0.21201  -0.20997  -0.20257
 Alpha  occ. eigenvalues --   -0.19195  -0.19066  -0.18805
 Alpha virt. eigenvalues --   -0.10211  -0.04781  -0.04278  -0.03713  -0.01939
 Alpha virt. eigenvalues --   -0.01456  -0.01070  -0.00660  -0.00555  -0.00059
 Alpha virt. eigenvalues --    0.00052   0.00373   0.00617   0.01270   0.01406

 Mulliken charges:
               1
     1  C    0.050981
     2  C    0.032947
     3  O   -0.299643
     4  H    0.039242
     5  H    0.022614
     6  H    0.037073
     7  N   -0.119327
     8  C    0.135799
     9  C    0.032404
    10  O   -0.267471
    11  C    0.036045
    12  C    0.146489
    13  O   -0.379614
    14  O   -0.499223
    15  H    0.121522
    16  H    0.013984
    17  H    0.018164
    18  H    0.008278
    19  N   -0.163546
    20  C    0.158065
    21  C    0.043894
    22  O   -0.303743
    23  C   -0.057036
    24  C    0.048565
    25  C   -0.066977
    26  C    0.027141
    27  N    0.075639
    28  H    0.150700
    29  H    0.032237
    30  H   -0.022508
    31  H    0.073511
    32  H    0.031866
    33  H   -0.002146
    34  H    0.078318
    35  H    0.011754
    36  H    0.054761
    37  H    0.090836
    38  H    0.192877
    39  H    0.181028
    40  H    0.192469
    41  N   -0.139069
    42  C    0.132688
    43  C    0.042097
    44  O   -0.286237
    45  C    0.062174
    46  C    0.107390
    47  O   -0.369657
    48  O   -0.453600
    49  H    0.140660
    50  H    0.015112
    51  H   -0.010799
    52  H    0.032361
    53  N   -0.168371
    54  C    0.272305
    55  C    0.021832
    56  O   -0.314788
    57  H    0.138382
    58  H    0.008921
    59  H    0.033811
    60  N   -0.160690
    61  C    0.167350
    62  C    0.043216
    63  O   -0.315920
    64  C    0.080291
    65  C    0.073100
    66  N   -0.044718
    67  O   -0.359954
    68  H    0.164393
    69  H    0.035441
    70  H    0.075238
    71  H   -0.021229
    72  H    0.129423
    73  H    0.122625
    74  N   -0.129586
    75  C    0.211295
    76  C    0.041707
    77  O   -0.310668
    78  H    0.156077
    79  H    0.030237
    80  H    0.041029
    81  N   -0.117597
    82  C    0.144923
    83  C    0.133922
    84  O   -0.316478
    85  C    0.078380
    86  C   -0.000381
    87  C    0.012420
    88  C    0.000832
    89  C   -0.019718
    90  C   -0.022751
    91  C    0.152318
    92  O   -0.215385
    93  H    0.145076
    94  H    0.002574
    95  H   -0.020493
    96  H   -0.029121
    97  H   -0.037386
    98  H   -0.029430
    99  H   -0.025035
   100  H   -0.037430
   101  H    0.173016
   102  N   -0.151559
   103  C    0.143073
   104  C    0.101166
   105  O   -0.298330
   106  C   -0.090598
   107  C    0.008410
   108  C    0.032357
   109  C    0.050301
   110  H    0.132501
   111  H    0.002929
   112  H   -0.012440
   113  H   -0.008329
   114  H    0.006380
   115  H    0.022051
   116  H    0.026693
   117  H    0.012216
   118  H   -0.001834
   119  H    0.010116
   120  H    0.000928
   121  N   -0.127672
   122  C    0.077480
   123  C    0.117795
   124  O   -0.266134
   125  C    0.257159
   126  O   -0.362156
   127  H    0.126034
   128  H    0.013391
   129  H   -0.004890
   130  H   -0.004351
   131  H    0.167947
   132  N   -0.146261
   133  C    0.132862
   134  C    0.015502
   135  O   -0.285984
   136  C    0.032325
   137  H    0.116786
   138  H    0.026874
   139  H    0.043378
   140  H    0.029970
   141  H    0.023890
   142  N   -0.140497
   143  C    0.136702
   144  C    0.034524
   145  O   -0.257172
   146  C    0.039993
   147  H    0.113094
   148  H    0.027886
   149  H   -0.001138
   150  H    0.019839
   151  H    0.022103
   152  N   -0.156550
   153  C    0.141738
   154  C    0.007015
   155  O   -0.291492
   156  C    0.024644
   157  C    0.075791
   158  C    0.145875
   159  O   -0.406283
   160  O   -0.423969
   161  H    0.130051
   162  H   -0.026896
   163  H    0.068735
   164  H    0.000184
   165  H   -0.027638
   166  H   -0.043002
   167  N   -0.157760
   168  C    0.159220
   169  H    0.025584
   170  H    0.021153
   171  H    0.006836
   172  H    0.137732
   173  Ca   1.329062
   174  O   -0.285403
   175  H    0.176109
   176  H    0.179861
 Sum of Mulliken charges =   0.00000

 Dipole moment (field-independent basis, Debye):
    X=            -24.1519    Y=              0.7199    Z=            -18.5859  Tot=             30.4839
 Quadrupole moment (field-independent basis, Debye-Ang):
   XX=           -686.3566   YY=           -515.9580   ZZ=           -494.3311
   XY=             74.4772   XZ=             61.6831   YZ=             11.3287

 ESP charges:
               1
     1  C   -0.436625
     2  C    0.834976
     3  O   -0.706471
     4  H    0.138367
     5  H    0.096085
     6  H    0.114236
     7  N   -0.750735
     8  C    0.396924
     9  C    0.414920
    10  O   -0.549604
    11  C   -0.347181
    12  C    0.896448
    13  O   -0.739043
    14  O   -1.069253
    15  H    0.362930
    16  H   -0.000500
    17  H    0.101338
    18  H    0.081112
    19  N    0.118760
    20  C   -0.551243
    21  C    0.719710
    22  O   -0.575387
    23  C    0.061112
    24  C   -0.042176
    25  C   -0.047029
    26  C    0.089498
    27  N   -0.400156
    28  H    0.050014
    29  H    0.211568
    30  H    0.006233
    31  H    0.123440
    32  H    0.069674
    33  H    0.000446
    34  H    0.058422
    35  H    0.022849
    36  H    0.069731
    37  H    0.083485
    38  H    0.341572
    39  H    0.328638
    40  H    0.331706
    41  N   -0.391381
    42  C   -0.085357
    43  C    0.473987
    44  O   -0.528903
    45  C   -0.184920
    46  C    0.701052
    47  O   -0.683509
    48  O   -0.812020
    49  H    0.180408
    50  H    0.141675
    51  H    0.048518
    52  H    0.100563
    53  N   -0.257830
    54  C   -0.220859
    55  C    0.629924
    56  O   -0.617757
    57  H    0.247951
    58  H    0.122797
    59  H    0.141287
    60  N   -0.404500
    61  C   -0.143495
    62  C    0.443072
    63  O   -0.515165
    64  C   -0.281309
    65  C    0.634776
    66  N   -0.784513
    67  O   -0.595040
    68  H    0.480623
    69  H    0.187771
    70  H    0.208207
    71  H    0.071757
    72  H    0.382912
    73  H    0.358992
    74  N   -0.208920
    75  C   -0.340522
    76  C    0.706485
    77  O   -0.597805
    78  H    0.311526
    79  H    0.161589
    80  H    0.144435
    81  N   -0.473294
    82  C    0.209953
    83  C    0.476321
    84  O   -0.540240
    85  C    0.279666
    86  C   -0.364437
    87  C    0.213847
    88  C    0.027528
    89  C   -0.521348
    90  C   -0.455718
    91  C    0.600971
    92  O   -0.595892
    93  H    0.266381
    94  H    0.018741
    95  H   -0.073495
    96  H   -0.031249
    97  H    0.044323
    98  H    0.130290
    99  H    0.206102
   100  H    0.174922
   101  H    0.404943
   102  N   -0.584088
   103  C   -0.084552
   104  C    0.606746
   105  O   -0.571883
   106  C    0.546388
   107  C   -0.063212
   108  C   -0.614888
   109  C   -0.257026
   110  H    0.323969
   111  H    0.104481
   112  H   -0.087240
   113  H    0.026508
   114  H    0.024900
   115  H    0.124408
   116  H    0.197320
   117  H    0.151334
   118  H    0.062187
   119  H    0.058566
   120  H    0.072960
   121  N   -0.321046
   122  C   -0.226511
   123  C    0.649190
   124  O   -0.496113
   125  C    0.096652
   126  O   -0.500203
   127  H    0.270113
   128  H    0.120465
   129  H    0.057037
   130  H    0.049218
   131  H    0.322022
   132  N   -0.447209
   133  C    0.021509
   134  C    0.598188
   135  O   -0.555019
   136  C   -0.314429
   137  H    0.287032
   138  H    0.115888
   139  H    0.111146
   140  H    0.107386
   141  H    0.099604
   142  N   -0.499373
   143  C    0.227728
   144  C    0.372819
   145  O   -0.511731
   146  C   -0.426103
   147  H    0.289334
   148  H    0.092788
   149  H    0.099378
   150  H    0.114902
   151  H    0.122316
   152  N    0.064083
   153  C   -0.652327
   154  C    0.650522
   155  O   -0.577671
   156  C    0.169219
   157  C    0.418085
   158  C    0.439100
   159  O   -0.598974
   160  O   -0.597033
   161  H    0.022759
   162  H    0.203681
   163  H    0.071472
   164  H   -0.140832
   165  H   -0.116630
   166  H   -0.201349
   167  N   -0.122842
   168  C   -0.282786
   169  H    0.122933
   170  H    0.110141
   171  H    0.096676
   172  H    0.179280
   173  Ca   1.682859
   174  O   -0.878781
   175  H    0.397311
   176  H    0.443643
 Sum of ESP charges =   0.00000

 Normal termination of Gaussian 09 at Mon Sep 16 16:24:43 2019.
