 Gaussian 09, Revision D.01,
 Gaussian 09:  ES64L-G09RevD.01 24-Apr-2013

 ----------------------------------------------------------------------
 #maxdisk=50GB #B3LYP/SVP Density=Current scf=(tight) #IOP(5/87=12)Pop=
 (MK,readradii) iop(6/33=2) iop(6/42=6)
 ----------------------------------------------------------------------

 ------------
 SOL molecule
 ------------
 Symbolic Z-matrix:
 Charge =  0 Multiplicity = 1

                         Standard orientation:
 ---------------------------------------------------------------------
 Center     Atomic      Atomic             Coordinates (Angstroms)
 Number     Number       Type             X           Y           Z
 ---------------------------------------------------------------------
      1          6           0        1.967898    1.492406    5.872685
      2          6           0        1.441614    1.325704    4.455175
      3          8           0        2.301778    1.176435    3.584982
      4          1           0        2.561227    0.619202    6.144052
      5          1           0        2.590955    2.385509    5.926810
      6          1           0        1.129565    1.590003    6.562713
      7          7           0        0.153895    1.546489    4.212003
      8          6           0       -0.439321    1.692124    2.898729
      9          6           0       -0.315066    3.125224    2.417185
     10          8           0       -1.018297    4.058723    2.795794
     11          6           0       -1.900751    1.252855    2.995487
     12          6           0       -2.631301    1.397372    1.676051
     13          8           0       -2.127131    1.878307    0.641201
     14          8           0       -3.852098    1.121001    1.719337
     15          1           0       -0.474213    1.625764    5.002507
     16          1           0        0.105041    1.050080    2.210580
     17          1           0       -2.373002    1.848300    3.772678
     18          1           0       -1.975088    0.197103    3.285939
     19          7           0        0.619018    3.349247    1.487076
     20          6           0        1.010471    4.635025    0.968097
     21          6           0       -0.041431    5.498851    0.302210
     22          8           0       -0.171671    6.714983    0.484862
     23          6           0        2.124960    4.332730   -0.041028
     24          6           0        2.867599    5.595554   -0.463356
     25          6           0        4.145694    5.145242   -1.164708
     26          6           0        4.756330    6.355321   -1.864873
     27          7           0        5.878391    5.983340   -2.738033
     28          1           0        1.105556    2.560536    1.075596
     29          1           0        1.517159    5.167928    1.782272
     30          1           0        1.762972    3.794317   -0.914628
     31          1           0        2.871921    3.716602    0.446655
     32          1           0        2.957642    6.293768    0.372700
     33          1           0        2.271220    6.150008   -1.196236
     34          1           0        3.941815    4.290563   -1.820876
     35          1           0        4.870531    4.768425   -0.438402
     36          1           0        5.157514    7.027620   -1.110177
     37          1           0        3.961153    6.857804   -2.425769
     38          1           0        5.515504    5.298535   -3.386536
     39          1           0        6.281151    6.757264   -3.237558
     40          1           0        6.632732    5.580100   -2.210049
     41          7           0       -1.018971    4.825181   -0.297528
     42          6           0       -2.140975    5.341573   -1.058151
     43          6           0       -3.547883    5.053184   -0.564956
     44          8           0       -4.424196    5.813125   -0.987171
     45          6           0       -1.902611    4.765775   -2.452116
     46          6           0       -1.759514    3.243424   -2.443813
     47          8           0       -2.752054    2.524670   -2.668660
     48          8           0       -0.635920    2.707440   -2.364082
     49          1           0       -0.888206    3.823938   -0.352420
     50          1           0       -1.988086    6.417131   -1.058194
     51          1           0       -1.004795    5.237918   -2.862493
     52          1           0       -2.707270    5.137300   -3.086224
     53          7           0       -3.696961    4.136389    0.392208
     54          6           0       -4.944652    3.990501    1.108436
     55          6           0       -5.933714    3.048466    0.424749
     56          8           0       -7.078221    3.064088    0.889248
     57          1           0       -2.980915    3.462630    0.589507
     58          1           0       -5.354244    4.997538    1.225956
     59          1           0       -4.679211    3.585184    2.081811
     60          7           0       -5.520488    2.251652   -0.558273
     61          6           0       -6.424005    1.449001   -1.356214
     62          6           0       -6.776874    0.180248   -0.596774
     63          8           0       -7.572694   -0.624030   -1.068374
     64          6           0       -5.853955    1.187821   -2.750820
     65          6           0       -4.986120   -0.058957   -2.765202
     66          7           0       -5.309248   -1.053356   -3.594455
     67          8           0       -3.953467   -0.180338   -2.097225
     68          1           0       -4.528052    2.155759   -0.702411
     69          1           0       -7.339060    2.041438   -1.387735
     70          1           0       -5.094237    1.917057   -3.034976
     71          1           0       -6.654459    1.175880   -3.489028
     72          1           0       -6.071848   -0.980496   -4.251594
     73          1           0       -4.773420   -1.893504   -3.748206
     74          7           0       -6.168269   -0.110019    0.562081
     75          6           0       -6.510669   -1.257159    1.374443
     76          6           0       -5.376506   -2.266210    1.564155
     77          8           0       -5.631705   -3.195170    2.324620
     78          1           0       -5.421507    0.463214    0.935646
     79          1           0       -7.376840   -1.779854    0.991508
     80          1           0       -6.737006   -0.827757    2.348499
     81          7           0       -4.225813   -1.996539    0.958694
     82          6           0       -3.164522   -2.983803    0.967258
     83          6           0       -1.798773   -2.308068    0.963929
     84          8           0       -1.553222   -1.129194    0.713806
     85          6           0       -3.261672   -3.744155   -0.348161
     86          6           0       -4.526266   -4.551704   -0.530554
     87          6           0       -4.659118   -5.905862   -0.228715
     88          6           0       -5.642130   -3.934929   -1.105474
     89          6           0       -5.809956   -6.649534   -0.523711
     90          6           0       -6.830466   -4.641192   -1.350525
     91          6           0       -6.927320   -6.018785   -1.100212
     92          8           0       -8.028127   -6.760273   -1.423353
     93          1           0       -3.998963   -1.113651    0.513782
     94          1           0       -3.160873   -3.668677    1.805311
     95          1           0       -2.420255   -4.432026   -0.394548
     96          1           0       -3.234505   -3.065429   -1.206527
     97          1           0       -3.758103   -6.333302    0.199264
     98          1           0       -5.594850   -2.876163   -1.280346
     99          1           0       -5.792870   -7.714474   -0.337938
    100          1           0       -7.610887   -4.088367   -1.859963
    101          1           0       -8.674068   -6.305129   -1.974901
    102          7           0       -0.810231   -3.146166    1.284673
    103          6           0        0.593415   -2.853472    1.528615
    104          6           0        1.278887   -3.844066    0.598803
    105          8           0        0.981442   -5.040861    0.613158
    106          6           0        0.923466   -3.044905    3.002969
    107          6           0        0.224553   -1.991970    3.863986
    108          6           0        2.432750   -2.862437    3.184534
    109          6           0        0.162024   -2.524511    5.289079
    110          1           0       -1.068246   -4.116126    1.368965
    111          1           0        0.845318   -1.827888    1.245909
    112          1           0        0.634578   -4.037708    3.357492
    113          1           0       -0.824653   -1.838281    3.623889
    114          1           0        0.727446   -1.022880    3.856075
    115          1           0        2.749788   -3.123444    4.182663
    116          1           0        3.016185   -3.555683    2.576082
    117          1           0        2.760907   -1.827976    3.034517
    118          1           0        1.155672   -2.721618    5.704185
    119          1           0       -0.267438   -1.735166    5.905112
    120          1           0       -0.555339   -3.338064    5.293776
    121          7           0        2.208433   -3.295188   -0.175586
    122          6           0        3.189119   -3.943012   -1.012354
    123          6           0        4.671639   -3.635590   -0.776288
    124          8           0        4.902636   -2.720235    0.010964
    125          6           0        2.854241   -3.831688   -2.494401
    126          8           0        2.767351   -2.524401   -3.002192
    127          1           0        2.119744   -2.280685   -0.233183
    128          1           0        3.135172   -5.034025   -0.926452
    129          1           0        1.850022   -4.253117   -2.610338
    130          1           0        3.492022   -4.438012   -3.145174
    131          1           0        2.172725   -1.977490   -2.474738
    132          7           0        5.661512   -4.366803   -1.283416
    133          6           0        7.059776   -4.242090   -0.937722
    134          6           0        7.623147   -2.837367   -1.074345
    135          8           0        8.163765   -2.338288   -0.085227
    136          6           0        7.802167   -5.324818   -1.723759
    137          1           0        5.493869   -5.059560   -1.997618
    138          1           0        7.165471   -4.438745    0.133845
    139          1           0        8.697171   -5.632856   -1.183499
    140          1           0        7.263808   -6.246201   -1.956401
    141          1           0        7.995130   -4.974065   -2.728566
    142          7           0        7.425260   -2.124986   -2.180940
    143          6           0        7.901707   -0.752995   -2.208143
    144          6           0        7.213155    0.172956   -1.214206
    145          8           0        7.823821    1.140598   -0.767714
    146          6           0        7.750093   -0.318321   -3.662644
    147          1           0        6.881404   -2.498451   -2.942218
    148          1           0        8.937550   -0.844163   -1.908780
    149          1           0        6.702650   -0.212674   -3.949526
    150          1           0        8.286249    0.621213   -3.773608
    151          1           0        8.317823   -1.052474   -4.238232
    152          7           0        6.018825   -0.159690   -0.744503
    153          6           0        5.304310    0.633092    0.235582
    154          6           0        5.838299    0.383844    1.638055
    155          8           0        6.150483    1.261348    2.456547
    156          6           0        3.795404    0.416826    0.197745
    157          6           0        3.137009    0.607241   -1.163967
    158          6           0        1.700828    0.120501   -1.004687
    159          8           0        0.918126    0.858902   -0.377439
    160          8           0        1.366303   -1.014885   -1.424559
    161          1           0        5.593575   -1.041739   -0.989762
    162          1           0        5.461792    1.695810    0.054392
    163          1           0        3.434543    1.192145    0.877788
    164          1           0        3.680136   -0.568763    0.641172
    165          1           0        3.681834    0.116396   -1.971021
    166          1           0        3.183776    1.670634   -1.360708
    167          7           0        6.123987   -0.871471    1.973863
    168          6           0        6.806768   -1.290357    3.190639
    169          1           0        7.801751   -1.657797    2.940058
    170          1           0        6.893677   -0.442061    3.869687
    171          1           0        6.237574   -2.084872    3.672332
    172          1           0        5.911706   -1.554349    1.262797
    173         20           0       -1.281077    0.444030   -1.579642
    174          8           0       -1.503909    0.003105   -4.127647
    175          1           0       -1.643874    0.868221   -4.508283
    176          1           0       -1.656623   -0.610050   -4.848216
 ---------------------------------------------------------------------

 SCF Done:  E(RB3LYP) =  -5333.59853386     A.U. after   17 cycles

 The electronic state is 1-A.
 Alpha  occ. eigenvalues -- -145.38682 -19.18714 -19.14866 -19.13642 -19.11800
 Alpha  occ. eigenvalues --  -19.11738 -19.11458 -19.10917 -19.10869 -19.10239
 Alpha  occ. eigenvalues --  -19.09613 -19.09489 -19.07078 -19.06775 -19.06216
 Alpha  occ. eigenvalues --  -19.06037 -19.05963 -19.05875 -19.05535 -19.05383
 Alpha  occ. eigenvalues --  -19.05195 -19.04233 -19.03746 -19.03359 -15.44408
 Alpha  occ. eigenvalues --  -14.58624 -14.40043 -14.38398 -14.36525 -14.35844
 Alpha  occ. eigenvalues --  -14.35836 -14.35253 -14.34109 -14.32980 -14.32056
 Alpha  occ. eigenvalues --  -14.31299 -14.30868 -14.30228 -14.29884 -14.28996
 Alpha  occ. eigenvalues --  -12.58025 -12.57999 -12.57963 -10.34683 -10.32319
 Alpha  occ. eigenvalues --  -10.30501 -10.30335 -10.29625 -10.29094 -10.28589
 Alpha  occ. eigenvalues --  -10.28407 -10.26975 -10.26767 -10.26288 -10.25470
 Alpha  occ. eigenvalues --  -10.25385 -10.25101 -10.24887 -10.24815 -10.24807
 Alpha  occ. eigenvalues --  -10.24680 -10.24643 -10.24123 -10.23944 -10.23769
 Alpha  occ. eigenvalues --  -10.22963 -10.22953 -10.22908 -10.22868 -10.22647
 Alpha  occ. eigenvalues --  -10.22616 -10.22251 -10.22122 -10.21705 -10.20863
 Alpha  occ. eigenvalues --  -10.20197 -10.20003 -10.19152 -10.19138 -10.19137
 Alpha  occ. eigenvalues --  -10.19116 -10.19037 -10.18823 -10.18671 -10.17783
 Alpha  occ. eigenvalues --  -10.17531 -10.17451 -10.17298 -10.17223 -10.17138
 Alpha  occ. eigenvalues --  -10.16912 -10.16781 -10.16704 -10.16562 -10.16527
 Alpha  occ. eigenvalues --  -10.15891 -10.15865  -1.81221  -1.14061  -1.08822
 Alpha  occ. eigenvalues --   -1.08784  -1.08614  -1.07322  -1.05169  -1.05060
 Alpha  occ. eigenvalues --   -1.04609  -1.04535  -1.03771  -1.03090  -1.02801
 Alpha  occ. eigenvalues --   -1.02711  -1.01867  -1.00429  -1.00041  -0.99747
 Alpha  occ. eigenvalues --   -0.99362  -0.99208  -0.98549  -0.98470  -0.98453
 Alpha  occ. eigenvalues --   -0.97009  -0.96789  -0.96275  -0.95160  -0.95019
 Alpha  occ. eigenvalues --   -0.93117  -0.92775  -0.92094  -0.90983  -0.90903
 Alpha  occ. eigenvalues --   -0.90573  -0.90539  -0.89883  -0.89204  -0.88570
 Alpha  occ. eigenvalues --   -0.88267  -0.88028  -0.87061  -0.86454  -0.85887
 Alpha  occ. eigenvalues --   -0.83332  -0.82296  -0.81509  -0.81053  -0.80053
 Alpha  occ. eigenvalues --   -0.78963  -0.78111  -0.77669  -0.76593  -0.76423
 Alpha  occ. eigenvalues --   -0.75059  -0.74258  -0.74154  -0.73515  -0.72914
 Alpha  occ. eigenvalues --   -0.72336  -0.72292  -0.72042  -0.70484  -0.70092
 Alpha  occ. eigenvalues --   -0.69843  -0.69061  -0.67924  -0.67662  -0.67384
 Alpha  occ. eigenvalues --   -0.66965  -0.66166  -0.65379  -0.64968  -0.64062
 Alpha  occ. eigenvalues --   -0.63833  -0.63556  -0.62435  -0.62069  -0.61917
 Alpha  occ. eigenvalues --   -0.61374  -0.60636  -0.60266  -0.60209  -0.60127
 Alpha  occ. eigenvalues --   -0.59786  -0.58568  -0.58437  -0.58026  -0.57926
 Alpha  occ. eigenvalues --   -0.57685  -0.57341  -0.56634  -0.56355  -0.55984
 Alpha  occ. eigenvalues --   -0.55928  -0.55287  -0.55202  -0.54821  -0.54621
 Alpha  occ. eigenvalues --   -0.54516  -0.53931  -0.53700  -0.53549  -0.53363
 Alpha  occ. eigenvalues --   -0.53138  -0.52765  -0.52393  -0.51989  -0.51649
 Alpha  occ. eigenvalues --   -0.50997  -0.50570  -0.49959  -0.49766  -0.49640
 Alpha  occ. eigenvalues --   -0.49271  -0.48843  -0.48565  -0.48450  -0.48383
 Alpha  occ. eigenvalues --   -0.48208  -0.48116  -0.47859  -0.47702  -0.47575
 Alpha  occ. eigenvalues --   -0.47502  -0.46944  -0.46918  -0.46746  -0.46440
 Alpha  occ. eigenvalues --   -0.46270  -0.46239  -0.45749  -0.45554  -0.45445
 Alpha  occ. eigenvalues --   -0.45157  -0.44872  -0.44814  -0.44672  -0.44515
 Alpha  occ. eigenvalues --   -0.44400  -0.44206  -0.43852  -0.43796  -0.43535
 Alpha  occ. eigenvalues --   -0.43314  -0.43052  -0.42971  -0.42949  -0.42815
 Alpha  occ. eigenvalues --   -0.42672  -0.42537  -0.42482  -0.42336  -0.42111
 Alpha  occ. eigenvalues --   -0.42082  -0.42025  -0.41888  -0.41478  -0.41418
 Alpha  occ. eigenvalues --   -0.41258  -0.41057  -0.40984  -0.40803  -0.40727
 Alpha  occ. eigenvalues --   -0.40455  -0.40407  -0.40243  -0.40186  -0.40030
 Alpha  occ. eigenvalues --   -0.39904  -0.39650  -0.39485  -0.39347  -0.39193
 Alpha  occ. eigenvalues --   -0.39089  -0.38961  -0.38851  -0.38721  -0.38566
 Alpha  occ. eigenvalues --   -0.38499  -0.38253  -0.38112  -0.37901  -0.37791
 Alpha  occ. eigenvalues --   -0.37709  -0.37605  -0.37427  -0.37342  -0.37052
 Alpha  occ. eigenvalues --   -0.36753  -0.36633  -0.36609  -0.36515  -0.36384
 Alpha  occ. eigenvalues --   -0.36026  -0.35984  -0.35794  -0.35637  -0.35591
 Alpha  occ. eigenvalues --   -0.35316  -0.35097  -0.34897  -0.34872  -0.34714
 Alpha  occ. eigenvalues --   -0.34415  -0.34394  -0.34325  -0.33895  -0.33614
 Alpha  occ. eigenvalues --   -0.33315  -0.33260  -0.32904  -0.32615  -0.32560
 Alpha  occ. eigenvalues --   -0.32435  -0.32304  -0.32299  -0.31977  -0.31847
 Alpha  occ. eigenvalues --   -0.31637  -0.31368  -0.31068  -0.30607  -0.29955
 Alpha  occ. eigenvalues --   -0.29458  -0.28887  -0.28649  -0.28093  -0.27631
 Alpha  occ. eigenvalues --   -0.27483  -0.27415  -0.27290  -0.27095  -0.26864
 Alpha  occ. eigenvalues --   -0.25996  -0.25648  -0.25431  -0.25374  -0.25116
 Alpha  occ. eigenvalues --   -0.25076  -0.24587  -0.23979  -0.23905  -0.23810
 Alpha  occ. eigenvalues --   -0.23594  -0.23361  -0.22963  -0.22789  -0.22530
 Alpha  occ. eigenvalues --   -0.22368  -0.21989  -0.21680  -0.21549  -0.21486
 Alpha  occ. eigenvalues --   -0.21305  -0.21177  -0.20811  -0.20124  -0.19912
 Alpha  occ. eigenvalues --   -0.19266  -0.19127  -0.18295
 Alpha virt. eigenvalues --   -0.10508  -0.04396  -0.04019  -0.02457  -0.02138
 Alpha virt. eigenvalues --   -0.01205  -0.00609  -0.00172  -0.00022   0.00208
 Alpha virt. eigenvalues --    0.00841   0.01109   0.01167   0.01656   0.02261

 Mulliken charges:
               1
     1  C    0.075255
     2  C    0.025035
     3  O   -0.306683
     4  H    0.029256
     5  H    0.049674
     6  H   -0.017151
     7  N   -0.118055
     8  C    0.084751
     9  C    0.081899
    10  O   -0.271370
    11  C    0.076749
    12  C    0.176482
    13  O   -0.464313
    14  O   -0.387725
    15  H    0.123637
    16  H    0.015655
    17  H    0.015364
    18  H    0.009285
    19  N   -0.133044
    20  C    0.146458
    21  C    0.062730
    22  O   -0.290425
    23  C   -0.074333
    24  C    0.018036
    25  C   -0.065064
    26  C    0.022285
    27  N    0.092548
    28  H    0.150930
    29  H   -0.000075
    30  H    0.044468
    31  H    0.021533
    32  H    0.029437
    33  H    0.016882
    34  H    0.033253
    35  H    0.050632
    36  H    0.073968
    37  H    0.078365
    38  H    0.193162
    39  H    0.187011
    40  H    0.196359
    41  N   -0.132027
    42  C    0.061481
    43  C    0.112084
    44  O   -0.296931
    45  C    0.166854
    46  C    0.040782
    47  O   -0.380599
    48  O   -0.452140
    49  H    0.148183
    50  H    0.015143
    51  H   -0.035150
    52  H    0.003668
    53  N   -0.182555
    54  C    0.238162
    55  C    0.041183
    56  O   -0.308656
    57  H    0.148734
    58  H    0.025140
    59  H    0.030393
    60  N   -0.157053
    61  C    0.129347
    62  C    0.051279
    63  O   -0.313995
    64  C    0.164732
    65  C    0.044510
    66  N   -0.038787
    67  O   -0.350971
    68  H    0.131847
    69  H    0.027749
    70  H    0.057654
    71  H   -0.005128
    72  H    0.118661
    73  H    0.115999
    74  N   -0.182434
    75  C    0.233534
    76  C    0.033181
    77  O   -0.291938
    78  H    0.149087
    79  H    0.038285
    80  H    0.029821
    81  N   -0.130657
    82  C    0.097407
    83  C    0.105590
    84  O   -0.326930
    85  C    0.138549
    86  C   -0.028990
    87  C    0.008942
    88  C   -0.025962
    89  C   -0.012332
    90  C   -0.045445
    91  C    0.204229
    92  O   -0.210900
    93  H    0.144495
    94  H    0.014743
    95  H   -0.016285
    96  H   -0.025959
    97  H   -0.047335
    98  H   -0.026328
    99  H   -0.031231
   100  H   -0.037048
   101  H    0.178098
   102  N   -0.125321
   103  C    0.133801
   104  C    0.069708
   105  O   -0.294627
   106  C   -0.061274
   107  C   -0.014995
   108  C    0.041951
   109  C    0.029664
   110  H    0.128062
   111  H    0.028133
   112  H   -0.015267
   113  H    0.009439
   114  H    0.028206
   115  H   -0.010664
   116  H    0.003286
   117  H    0.044156
   118  H    0.008587
   119  H   -0.009835
   120  H    0.011858
   121  N   -0.108275
   122  C    0.094636
   123  C    0.106809
   124  O   -0.294035
   125  C    0.227826
   126  O   -0.361185
   127  H    0.150250
   128  H    0.013205
   129  H   -0.007037
   130  H   -0.026825
   131  H    0.173543
   132  N   -0.102893
   133  C    0.089232
   134  C    0.051247
   135  O   -0.252444
   136  C    0.038573
   137  H    0.116290
   138  H    0.026274
   139  H    0.051022
   140  H    0.016337
   141  H    0.002604
   142  N   -0.155932
   143  C    0.111467
   144  C    0.060830
   145  O   -0.286678
   146  C    0.037266
   147  H    0.112258
   148  H    0.023172
   149  H    0.024682
   150  H    0.013681
   151  H    0.021093
   152  N   -0.128912
   153  C    0.138865
   154  C    0.060855
   155  O   -0.293921
   156  C   -0.063400
   157  C    0.148766
   158  C    0.158994
   159  O   -0.395884
   160  O   -0.433321
   161  H    0.130643
   162  H   -0.043703
   163  H    0.051247
   164  H    0.018148
   165  H   -0.026291
   166  H   -0.041377
   167  N   -0.160476
   168  C    0.136937
   169  H    0.021583
   170  H    0.038770
   171  H    0.006035
   172  H    0.116887
   173  Ca   1.304306
   174  O   -0.301443
   175  H    0.193399
   176  H    0.182787
 Sum of Mulliken charges =   0.00000

 Dipole moment (field-independent basis, Debye):
    X=             31.2456    Y=              1.0647    Z=            -24.9152  Tot=             39.9774
 Quadrupole moment (field-independent basis, Debye-Ang):
   XX=           -571.6206   YY=           -509.4487   ZZ=           -475.5606
   XY=            122.5020   XZ=            -56.1281   YZ=            -45.7072

 ESP charges:
               1
     1  C   -0.433539
     2  C    0.843128
     3  O   -0.642175
     4  H    0.121822
     5  H    0.143060
     6  H    0.065547
     7  N   -0.789615
     8  C    0.203207
     9  C    0.664438
    10  O   -0.549150
    11  C   -0.574040
    12  C    1.072886
    13  O   -0.869474
    14  O   -0.722296
    15  H    0.396444
    16  H    0.035791
    17  H    0.150066
    18  H    0.142924
    19  N   -0.326893
    20  C   -0.149009
    21  C    0.556704
    22  O   -0.575601
    23  C    0.169509
    24  C   -0.363357
    25  C    0.148945
    26  C    0.050929
    27  N   -0.451975
    28  H    0.184841
    29  H    0.108743
    30  H    0.057966
    31  H    0.048960
    32  H    0.101099
    33  H    0.083445
    34  H   -0.003505
    35  H    0.019453
    36  H    0.084799
    37  H    0.080636
    38  H    0.341741
    39  H    0.353640
    40  H    0.353596
    41  N   -0.135283
    42  C    0.093447
    43  C    0.498396
    44  O   -0.556340
    45  C   -0.360389
    46  C    0.822937
    47  O   -0.686247
    48  O   -0.761203
    49  H   -0.132731
    50  H    0.081839
    51  H    0.084989
    52  H    0.097424
    53  N   -0.236968
    54  C   -0.266221
    55  C    0.594323
    56  O   -0.581843
    57  H    0.246710
    58  H    0.144892
    59  H    0.132187
    60  N   -0.319823
    61  C    0.027036
    62  C    0.355004
    63  O   -0.551344
    64  C   -0.159214
    65  C    0.680400
    66  N   -0.853026
    67  O   -0.582711
    68  H    0.148557
    69  H    0.118840
    70  H    0.088357
    71  H    0.069854
    72  H    0.373588
    73  H    0.384417
    74  N   -0.049055
    75  C   -0.321612
    76  C    0.791354
    77  O   -0.591063
    78  H    0.246190
    79  H    0.156601
    80  H    0.101235
    81  N   -0.750410
    82  C    0.672240
    83  C    0.228424
    84  O   -0.421510
    85  C   -0.134364
    86  C    0.130055
    87  C   -0.207922
    88  C   -0.387893
    89  C   -0.182638
    90  C   -0.202781
    91  C    0.359925
    92  O   -0.557033
    93  H    0.184210
    94  H   -0.062642
    95  H    0.008328
    96  H    0.012897
    97  H    0.117164
    98  H    0.297648
    99  H    0.138799
   100  H    0.114773
   101  H    0.409774
   102  N   -0.449213
   103  C   -0.455222
   104  C    0.737052
   105  O   -0.570703
   106  C    0.192934
   107  C    0.226881
   108  C   -0.305248
   109  C   -0.434890
   110  H    0.323541
   111  H    0.218303
   112  H    0.025439
   113  H    0.029836
   114  H    0.026697
   115  H    0.083113
   116  H    0.074418
   117  H    0.054423
   118  H    0.094408
   119  H    0.082042
   120  H    0.099199
   121  N   -0.371014
   122  C   -0.257604
   123  C    0.791679
   124  O   -0.537349
   125  C    0.303906
   126  O   -0.693956
   127  H    0.448286
   128  H    0.076164
   129  H   -0.003823
   130  H    0.007054
   131  H    0.454237
   132  N   -0.662853
   133  C    0.294977
   134  C    0.436356
   135  O   -0.511756
   136  C   -0.324697
   137  H    0.321549
   138  H    0.047273
   139  H    0.104572
   140  H    0.106880
   141  H    0.070033
   142  N   -0.460310
   143  C    0.137536
   144  C    0.349702
   145  O   -0.524880
   146  C   -0.383285
   147  H    0.299496
   148  H    0.117898
   149  H    0.111181
   150  H    0.103609
   151  H    0.110618
   152  N    0.014095
   153  C   -0.407742
   154  C    0.665056
   155  O   -0.586489
   156  C    0.284229
   157  C   -0.031000
   158  C    0.603652
   159  O   -0.634061
   160  O   -0.777595
   161  H    0.099148
   162  H    0.073369
   163  H    0.044837
   164  H   -0.176367
   165  H   -0.022182
   166  H   -0.019979
   167  N   -0.153873
   168  C   -0.221916
   169  H    0.087202
   170  H    0.115549
   171  H    0.072113
   172  H    0.200548
   173  Ca   1.660418
   174  O   -0.853138
   175  H    0.411437
   176  H    0.443964
 Sum of ESP charges =   0.00000

 Normal termination of Gaussian 09 at Mon Sep 16 14:48:39 2019.
