 Gaussian 09, Revision D.01,
 Gaussian 09:  ES64L-G09RevD.01 24-Apr-2013

 ----------------------------------------------------------------------
 #maxdisk=50GB #B3LYP/SVP Density=Current scf=(tight) #IOP(5/87=12)Pop=
 (MK,readradii) iop(6/33=2) iop(6/42=6)
 ----------------------------------------------------------------------

 ------------
 SOL molecule
 ------------
 Symbolic Z-matrix:
 Charge =  0 Multiplicity = 1

                         Standard orientation:
 ---------------------------------------------------------------------
 Center     Atomic      Atomic             Coordinates (Angstroms)
 Number     Number       Type             X           Y           Z
 ---------------------------------------------------------------------
      1          6           0        2.259620    1.340421    5.621043
      2          6           0        1.675742    1.454319    4.214979
      3          8           0        2.455206    1.474682    3.271358
      4          1           0        1.588908    1.822167    6.332742
      5          1           0        2.372021    0.288570    5.883895
      6          1           0        3.233058    1.829790    5.651589
      7          7           0        0.349184    1.533973    4.055613
      8          6           0       -0.291906    1.696961    2.778844
      9          6           0       -0.213166    3.140306    2.312094
     10          8           0       -0.607955    4.042285    3.050996
     11          6           0       -1.734950    1.204644    2.797468
     12          6           0       -2.580065    1.561354    1.582710
     13          8           0       -3.819222    1.550245    1.731601
     14          8           0       -2.044553    1.797979    0.479970
     15          1           0       -0.206014    1.475058    4.899641
     16          1           0        0.232174    1.025676    2.096188
     17          1           0       -2.124785    1.723793    3.674631
     18          1           0       -1.741167    0.132078    3.000849
     19          7           0        0.464410    3.390883    1.186482
     20          6           0        0.817404    4.740312    0.796310
     21          6           0       -0.267758    5.484727    0.036592
     22          8           0       -0.078166    6.656890   -0.287426
     23          6           0        2.109406    4.494828    0.010263
     24          6           0        2.978679    5.729568   -0.216195
     25          6           0        4.321948    5.330751   -0.825434
     26          6           0        5.250793    6.517241   -1.056713
     27          7           0        4.735299    7.307517   -2.185043
     28          1           0        0.782167    2.627683    0.595927
     29          1           0        1.061346    5.385932    1.642931
     30          1           0        1.741113    4.047165   -0.910855
     31          1           0        2.682556    3.746457    0.560389
     32          1           0        3.123015    6.239823    0.733651
     33          1           0        2.322411    6.395122   -0.777844
     34          1           0        4.142879    4.832242   -1.782735
     35          1           0        4.847463    4.680716   -0.126443
     36          1           0        6.263888    6.129592   -1.169706
     37          1           0        5.182462    7.195561   -0.206000
     38          1           0        5.462306    7.989599   -2.351248
     39          1           0        4.656317    6.904435   -3.109535
     40          1           0        3.952543    7.926743   -2.082798
     41          7           0       -1.445659    4.864243   -0.094356
     42          6           0       -2.463200    5.384119   -0.986398
     43          6           0       -3.925946    5.195911   -0.624801
     44          8           0       -4.816774    5.497603   -1.418153
     45          6           0       -2.181973    4.880440   -2.406299
     46          6           0       -1.924242    3.381145   -2.428382
     47          8           0       -0.780701    2.989669   -2.135705
     48          8           0       -2.879742    2.611731   -2.676622
     49          1           0       -1.524349    3.926516    0.270165
     50          1           0       -2.336289    6.467590   -1.010576
     51          1           0       -1.226878    5.278596   -2.741212
     52          1           0       -2.921148    5.196800   -3.131927
     53          7           0       -4.227221    4.591091    0.523383
     54          6           0       -5.537485    4.213920    1.030383
     55          6           0       -6.340511    3.226210    0.183814
     56          8           0       -7.526770    3.499857    0.065468
     57          1           0       -3.448580    4.159332    1.004010
     58          1           0       -6.220959    5.035135    1.229806
     59          1           0       -5.358051    3.716188    1.985562
     60          7           0       -5.711364    2.149388   -0.286003
     61          6           0       -6.392119    1.147188   -1.094624
     62          6           0       -6.716366   -0.109434   -0.303128
     63          8           0       -7.221747   -1.050947   -0.921063
     64          6           0       -5.697960    0.984181   -2.439492
     65          6           0       -4.659410   -0.133770   -2.520725
     66          7           0       -4.835070   -1.149980   -3.357303
     67          8           0       -3.645929   -0.038428   -1.820749
     68          1           0       -4.730382    2.049300   -0.064515
     69          1           0       -7.356041    1.577770   -1.384543
     70          1           0       -5.169803    1.904127   -2.672624
     71          1           0       -6.468302    0.785541   -3.187566
     72          1           0       -5.655104   -1.184950   -3.951290
     73          1           0       -4.124435   -1.840191   -3.557321
     74          7           0       -6.422616   -0.133882    0.999375
     75          6           0       -6.421720   -1.349528    1.789252
     76          6           0       -5.276490   -2.344262    1.606349
     77          8           0       -5.404958   -3.457271    2.114391
     78          1           0       -6.078307    0.734671    1.394302
     79          1           0       -7.332948   -1.893710    1.555524
     80          1           0       -6.397395   -1.093294    2.844312
     81          7           0       -4.225814   -2.139805    0.802560
     82          6           0       -3.185102   -3.095871    0.496853
     83          6           0       -1.811390   -2.456307    0.657703
     84          8           0       -1.556887   -1.324764    0.235519
     85          6           0       -3.396839   -3.732231   -0.874246
     86          6           0       -4.621672   -4.609229   -0.801729
     87          6           0       -4.539041   -5.928106   -0.354142
     88          6           0       -5.830784   -4.052148   -1.238890
     89          6           0       -5.703232   -6.706011   -0.233633
     90          6           0       -6.970611   -4.854083   -1.095382
     91          6           0       -6.959797   -6.177772   -0.615873
     92          8           0       -8.096498   -6.897699   -0.424776
     93          1           0       -4.061158   -1.221558    0.409226
     94          1           0       -3.310015   -3.909478    1.205260
     95          1           0       -2.563464   -4.428338   -0.971308
     96          1           0       -3.398741   -2.969793   -1.662652
     97          1           0       -3.584709   -6.338336   -0.054538
     98          1           0       -5.857711   -3.083896   -1.720515
     99          1           0       -5.624748   -7.748622    0.011322
    100          1           0       -7.926346   -4.497103   -1.418702
    101          1           0       -8.812608   -6.374602   -0.797945
    102          7           0       -0.867996   -3.142100    1.298401
    103          6           0        0.525093   -2.740020    1.316681
    104          6           0        1.242811   -3.562376    0.244948
    105          8           0        1.026657   -4.762527    0.085220
    106          6           0        1.096752   -3.046179    2.691335
    107          6           0        0.213181   -2.698748    3.894744
    108          6           0        2.473925   -2.418698    2.870679
    109          6           0        0.749229   -3.316214    5.186211
    110          1           0       -1.154770   -4.012770    1.718634
    111          1           0        0.585059   -1.683393    1.065793
    112          1           0        1.205571   -4.126709    2.694957
    113          1           0       -0.754315   -3.197718    3.820044
    114          1           0       -0.037074   -1.632622    3.843287
    115          1           0        3.126942   -2.689195    2.031036
    116          1           0        2.384593   -1.333766    2.877102
    117          1           0        3.031879   -2.609570    3.793314
    118          1           0        1.794582   -3.117520    5.390806
    119          1           0        0.180109   -2.930264    6.031519
    120          1           0        0.586486   -4.396080    5.208634
    121          7           0        2.276598   -2.989442   -0.368999
    122          6           0        3.188539   -3.697724   -1.240321
    123          6           0        4.646580   -3.488264   -0.835546
    124          8           0        4.973944   -2.714719    0.052014
    125          6           0        2.884051   -3.445867   -2.711258
    126          8           0        2.945526   -2.108771   -3.157682
    127          1           0        2.531942   -2.053264   -0.070051
    128          1           0        3.132190   -4.775480   -1.106653
    129          1           0        1.908844   -3.904773   -2.888111
    130          1           0        3.601258   -4.032287   -3.288083
    131          1           0        2.273120   -1.587990   -2.718641
    132          7           0        5.579607   -4.299938   -1.324160
    133          6           0        6.936025   -4.348241   -0.798425
    134          6           0        7.566397   -2.968585   -0.863870
    135          8           0        8.088679   -2.408349    0.107396
    136          6           0        7.743983   -5.315125   -1.673262
    137          1           0        5.327325   -4.883976   -2.101948
    138          1           0        6.921650   -4.651988    0.238653
    139          1           0        7.558134   -6.357198   -1.443384
    140          1           0        7.549537   -5.185753   -2.736537
    141          1           0        8.806166   -5.185442   -1.441205
    142          7           0        7.408138   -2.292093   -1.998203
    143          6           0        7.888902   -0.943905   -2.207619
    144          6           0        7.330961    0.104313   -1.256125
    145          8           0        7.982177    1.050670   -0.813714
    146          6           0        7.631381   -0.581135   -3.668947
    147          1           0        7.169354   -2.802906   -2.844225
    148          1           0        8.974356   -0.888529   -2.147426
    149          1           0        6.639332   -0.922496   -3.944287
    150          1           0        7.858248    0.452942   -3.954982
    151          1           0        8.287318   -1.266195   -4.223057
    152          7           0        6.116380   -0.161472   -0.764544
    153          6           0        5.380762    0.582554    0.226915
    154          6           0        5.921912    0.378294    1.636005
    155          8           0        6.199875    1.394482    2.264174
    156          6           0        3.867418    0.338428    0.253231
    157          6           0        3.234503    0.476346   -1.127963
    158          6           0        1.759379    0.090258   -1.033929
    159          8           0        1.255510   -0.591852   -1.947682
    160          8           0        1.042013    0.706789   -0.221110
    161          1           0        5.657818   -1.010491   -1.065852
    162          1           0        5.684322    1.614077    0.022192
    163          1           0        3.319459    0.972738    0.948640
    164          1           0        3.665220   -0.674572    0.591679
    165          1           0        3.766271   -0.137936   -1.850514
    166          1           0        3.307825    1.545644   -1.340627
    167          7           0        6.338950   -0.868001    1.900822
    168          6           0        6.930098   -1.190825    3.185240
    169          1           0        7.875508   -0.659261    3.293479
    170          1           0        6.251301   -0.891121    3.984443
    171          1           0        7.109478   -2.264360    3.244035
    172          1           0        5.905191   -1.607924    1.374165
    173         20           0       -1.200887    0.562673   -1.561046
    174          8           0       -1.263779   -1.685021   -3.012466
    175          1           0       -1.989728   -2.206960   -3.336621
    176          1           0       -0.536436   -1.895713   -3.594429
 ---------------------------------------------------------------------

 SCF Done:  E(RB3LYP) =  -5333.62484476     A.U. after   16 cycles

 The electronic state is 1-A.
 Alpha  occ. eigenvalues -- -145.34647 -19.18152 -19.15191 -19.13844 -19.11623
 Alpha  occ. eigenvalues --  -19.11198 -19.10928 -19.10770 -19.10358 -19.09439
 Alpha  occ. eigenvalues --  -19.08440 -19.07968 -19.07399 -19.07378 -19.07062
 Alpha  occ. eigenvalues --  -19.06504 -19.06361 -19.05617 -19.05031 -19.04607
 Alpha  occ. eigenvalues --  -19.04539 -19.04487 -19.03900 -19.03226 -15.40442
 Alpha  occ. eigenvalues --  -14.57634 -14.39374 -14.37527 -14.37370 -14.36658
 Alpha  occ. eigenvalues --  -14.36499 -14.33603 -14.33275 -14.33268 -14.33215
 Alpha  occ. eigenvalues --  -14.31796 -14.31758 -14.31110 -14.31061 -14.30320
 Alpha  occ. eigenvalues --  -12.54049 -12.54015 -12.53996 -10.34040 -10.32056
 Alpha  occ. eigenvalues --  -10.29903 -10.29652 -10.29502 -10.28925 -10.27575
 Alpha  occ. eigenvalues --  -10.26996 -10.26699 -10.26205 -10.26093 -10.25960
 Alpha  occ. eigenvalues --  -10.25515 -10.25492 -10.25388 -10.25078 -10.24676
 Alpha  occ. eigenvalues --  -10.24173 -10.24062 -10.23777 -10.23722 -10.23490
 Alpha  occ. eigenvalues --  -10.23316 -10.23269 -10.22785 -10.22781 -10.22574
 Alpha  occ. eigenvalues --  -10.21567 -10.21151 -10.21062 -10.20822 -10.20745
 Alpha  occ. eigenvalues --  -10.20121 -10.19581 -10.19557 -10.19357 -10.19078
 Alpha  occ. eigenvalues --  -10.19078 -10.18963 -10.18310 -10.18002 -10.17986
 Alpha  occ. eigenvalues --  -10.17686 -10.17649 -10.17592 -10.17384 -10.17313
 Alpha  occ. eigenvalues --  -10.17128 -10.17123 -10.17068 -10.16959 -10.16917
 Alpha  occ. eigenvalues --  -10.15846 -10.13711  -1.77440  -1.13276  -1.07955
 Alpha  occ. eigenvalues --   -1.05641  -1.05326  -1.05233  -1.04296  -1.04020
 Alpha  occ. eigenvalues --   -1.03965  -1.03889  -1.03853  -1.03356  -1.03120
 Alpha  occ. eigenvalues --   -1.00806  -1.00651  -1.00473  -1.00357  -1.00189
 Alpha  occ. eigenvalues --   -0.99796  -0.99334  -0.98898  -0.98594  -0.98233
 Alpha  occ. eigenvalues --   -0.98052  -0.97286  -0.96329  -0.93833  -0.93803
 Alpha  occ. eigenvalues --   -0.93324  -0.92941  -0.91778  -0.90302  -0.90268
 Alpha  occ. eigenvalues --   -0.90215  -0.89919  -0.89755  -0.89224  -0.88750
 Alpha  occ. eigenvalues --   -0.88461  -0.87865  -0.87762  -0.87743  -0.86611
 Alpha  occ. eigenvalues --   -0.83276  -0.82519  -0.81694  -0.80345  -0.78955
 Alpha  occ. eigenvalues --   -0.78007  -0.77809  -0.77282  -0.76251  -0.76060
 Alpha  occ. eigenvalues --   -0.74529  -0.74436  -0.73438  -0.72541  -0.72281
 Alpha  occ. eigenvalues --   -0.71818  -0.71389  -0.71048  -0.70650  -0.69601
 Alpha  occ. eigenvalues --   -0.69507  -0.69411  -0.68921  -0.67270  -0.66754
 Alpha  occ. eigenvalues --   -0.66726  -0.65658  -0.65430  -0.64485  -0.64288
 Alpha  occ. eigenvalues --   -0.63175  -0.63051  -0.62895  -0.61759  -0.61401
 Alpha  occ. eigenvalues --   -0.60912  -0.60708  -0.60438  -0.60138  -0.59859
 Alpha  occ. eigenvalues --   -0.59341  -0.58174  -0.57995  -0.57905  -0.57764
 Alpha  occ. eigenvalues --   -0.57516  -0.57321  -0.56576  -0.56317  -0.55871
 Alpha  occ. eigenvalues --   -0.55528  -0.55385  -0.55256  -0.55136  -0.54745
 Alpha  occ. eigenvalues --   -0.54220  -0.53902  -0.53498  -0.53185  -0.52977
 Alpha  occ. eigenvalues --   -0.52868  -0.52482  -0.52380  -0.51591  -0.51244
 Alpha  occ. eigenvalues --   -0.51119  -0.50973  -0.50207  -0.50074  -0.49252
 Alpha  occ. eigenvalues --   -0.48953  -0.48832  -0.48584  -0.48359  -0.48281
 Alpha  occ. eigenvalues --   -0.48005  -0.47929  -0.47597  -0.47377  -0.47128
 Alpha  occ. eigenvalues --   -0.46969  -0.46654  -0.46312  -0.46230  -0.46194
 Alpha  occ. eigenvalues --   -0.45977  -0.45670  -0.45302  -0.45210  -0.44896
 Alpha  occ. eigenvalues --   -0.44695  -0.44490  -0.44399  -0.44320  -0.44083
 Alpha  occ. eigenvalues --   -0.44037  -0.43678  -0.43642  -0.43482  -0.43313
 Alpha  occ. eigenvalues --   -0.43224  -0.43195  -0.43046  -0.42948  -0.42842
 Alpha  occ. eigenvalues --   -0.42741  -0.42612  -0.42445  -0.42342  -0.42033
 Alpha  occ. eigenvalues --   -0.41865  -0.41667  -0.41482  -0.41366  -0.41151
 Alpha  occ. eigenvalues --   -0.41071  -0.40888  -0.40862  -0.40720  -0.40556
 Alpha  occ. eigenvalues --   -0.40246  -0.39997  -0.39949  -0.39833  -0.39746
 Alpha  occ. eigenvalues --   -0.39598  -0.39344  -0.39302  -0.39239  -0.39166
 Alpha  occ. eigenvalues --   -0.39154  -0.39032  -0.38905  -0.38736  -0.38520
 Alpha  occ. eigenvalues --   -0.38247  -0.38171  -0.37925  -0.37911  -0.37828
 Alpha  occ. eigenvalues --   -0.37687  -0.37601  -0.37469  -0.37369  -0.37156
 Alpha  occ. eigenvalues --   -0.37027  -0.36778  -0.36699  -0.36534  -0.36452
 Alpha  occ. eigenvalues --   -0.36026  -0.36008  -0.35901  -0.35592  -0.35559
 Alpha  occ. eigenvalues --   -0.35289  -0.35106  -0.35009  -0.34459  -0.34253
 Alpha  occ. eigenvalues --   -0.34058  -0.33876  -0.33766  -0.33725  -0.33547
 Alpha  occ. eigenvalues --   -0.33490  -0.33012  -0.32974  -0.32694  -0.32631
 Alpha  occ. eigenvalues --   -0.32563  -0.32406  -0.32183  -0.31958  -0.31918
 Alpha  occ. eigenvalues --   -0.31449  -0.31316  -0.31079  -0.31049  -0.29868
 Alpha  occ. eigenvalues --   -0.29335  -0.28645  -0.28282  -0.27698  -0.27609
 Alpha  occ. eigenvalues --   -0.27251  -0.26525  -0.26356  -0.26275  -0.25861
 Alpha  occ. eigenvalues --   -0.25701  -0.25541  -0.25481  -0.25222  -0.24880
 Alpha  occ. eigenvalues --   -0.24647  -0.24520  -0.24115  -0.23788  -0.23738
 Alpha  occ. eigenvalues --   -0.23561  -0.23183  -0.22850  -0.22742  -0.22288
 Alpha  occ. eigenvalues --   -0.22056  -0.22034  -0.21913  -0.21684  -0.21393
 Alpha  occ. eigenvalues --   -0.21113  -0.20712  -0.20436  -0.20410  -0.20345
 Alpha  occ. eigenvalues --   -0.19679  -0.19468  -0.19277
 Alpha virt. eigenvalues --   -0.09694  -0.04378  -0.03550  -0.02215  -0.01897
 Alpha virt. eigenvalues --   -0.00371  -0.00131   0.00052   0.00188   0.00391
 Alpha virt. eigenvalues --    0.00906   0.01170   0.01475   0.02209   0.02494

 Mulliken charges:
               1
     1  C    0.060476
     2  C    0.023613
     3  O   -0.283850
     4  H    0.002754
     5  H    0.029835
     6  H    0.042787
     7  N   -0.118700
     8  C    0.127703
     9  C    0.044924
    10  O   -0.290932
    11  C    0.053866
    12  C    0.155426
    13  O   -0.391213
    14  O   -0.465125
    15  H    0.111566
    16  H    0.018572
    17  H   -0.003491
    18  H    0.015961
    19  N   -0.158580
    20  C    0.160946
    21  C    0.086597
    22  O   -0.317474
    23  C   -0.054174
    24  C   -0.004225
    25  C   -0.023192
    26  C    0.074560
    27  N    0.082064
    28  H    0.159958
    29  H    0.013466
    30  H    0.029033
    31  H    0.045849
    32  H    0.000916
    33  H   -0.006583
    34  H    0.022324
    35  H    0.075378
    36  H    0.093269
    37  H    0.058710
    38  H    0.170028
    39  H    0.181088
    40  H    0.188750
    41  N   -0.149450
    42  C    0.080090
    43  C    0.066094
    44  O   -0.279764
    45  C    0.170782
    46  C    0.065812
    47  O   -0.457028
    48  O   -0.378960
    49  H    0.187479
    50  H    0.022116
    51  H   -0.041111
    52  H    0.003945
    53  N   -0.135981
    54  C    0.238598
    55  C    0.007341
    56  O   -0.279395
    57  H    0.115601
    58  H    0.011725
    59  H    0.013868
    60  N   -0.170210
    61  C    0.133404
    62  C    0.032111
    63  O   -0.305714
    64  C    0.145525
    65  C    0.056568
    66  N   -0.016686
    67  O   -0.363135
    68  H    0.143021
    69  H    0.034221
    70  H    0.076148
    71  H   -0.025176
    72  H    0.138775
    73  H    0.101109
    74  N   -0.134149
    75  C    0.236786
    76  C    0.042236
    77  O   -0.303946
    78  H    0.152933
    79  H    0.041835
    80  H    0.029509
    81  N   -0.155646
    82  C    0.096568
    83  C    0.155469
    84  O   -0.357335
    85  C    0.181352
    86  C   -0.048314
    87  C    0.020571
    88  C    0.035704
    89  C   -0.024818
    90  C   -0.045610
    91  C    0.166342
    92  O   -0.182950
    93  H    0.146562
    94  H   -0.007162
    95  H   -0.015893
    96  H   -0.058058
    97  H   -0.039571
    98  H   -0.039070
    99  H   -0.034447
   100  H   -0.054091
   101  H    0.172151
   102  N   -0.111567
   103  C    0.125107
   104  C    0.081162
   105  O   -0.295696
   106  C   -0.069764
   107  C    0.035716
   108  C    0.008360
   109  C    0.031917
   110  H    0.130681
   111  H    0.040877
   112  H   -0.026210
   113  H   -0.020106
   114  H    0.007622
   115  H    0.005598
   116  H    0.032198
   117  H    0.008921
   118  H    0.006419
   119  H    0.005714
   120  H    0.007858
   121  N   -0.134802
   122  C    0.078297
   123  C    0.086466
   124  O   -0.289406
   125  C    0.282643
   126  O   -0.337835
   127  H    0.164730
   128  H    0.021132
   129  H   -0.007507
   130  H   -0.042302
   131  H    0.174759
   132  N   -0.117558
   133  C    0.122557
   134  C    0.043778
   135  O   -0.239273
   136  C    0.019460
   137  H    0.114201
   138  H    0.018735
   139  H    0.030069
   140  H    0.012480
   141  H    0.043425
   142  N   -0.130672
   143  C    0.093510
   144  C    0.075665
   145  O   -0.274308
   146  C    0.018806
   147  H    0.102549
   148  H    0.011674
   149  H    0.014456
   150  H    0.037356
   151  H    0.006034
   152  N   -0.144758
   153  C    0.127179
   154  C    0.074589
   155  O   -0.284265
   156  C   -0.045578
   157  C    0.111816
   158  C    0.126046
   159  O   -0.439433
   160  O   -0.396648
   161  H    0.132034
   162  H   -0.025922
   163  H    0.065552
   164  H   -0.031782
   165  H   -0.030849
   166  H   -0.003870
   167  N   -0.158829
   168  C    0.151224
   169  H    0.024973
   170  H    0.010279
   171  H    0.000599
   172  H    0.135202
   173  Ca   1.287846
   174  O   -0.261329
   175  H    0.155791
   176  H    0.184637
 Sum of Mulliken charges =   0.00000

 Dipole moment (field-independent basis, Debye):
    X=             25.3521    Y=              2.7793    Z=            -15.5076  Tot=             29.8486
 Quadrupole moment (field-independent basis, Debye-Ang):
   XX=           -599.2102   YY=           -431.6152   ZZ=           -499.6530
   XY=            120.7784   XZ=            -65.7965   YZ=            -28.9978

 ESP charges:
               1
     1  C   -0.454835
     2  C    0.882400
     3  O   -0.669418
     4  H    0.087409
     5  H    0.116338
     6  H    0.141264
     7  N   -0.876707
     8  C    0.742973
     9  C    0.380764
    10  O   -0.566069
    11  C   -0.465438
    12  C    0.688547
    13  O   -0.616383
    14  O   -0.669969
    15  H    0.363419
    16  H   -0.130870
    17  H    0.069978
    18  H    0.121567
    19  N   -0.054773
    20  C   -0.495416
    21  C    0.815662
    22  O   -0.599528
    23  C    0.220515
    24  C   -0.103636
    25  C   -0.040295
    26  C    0.010555
    27  N   -0.270533
    28  H    0.175460
    29  H    0.172156
    30  H    0.015950
    31  H    0.004313
    32  H    0.049004
    33  H    0.000353
    34  H    0.029677
    35  H    0.087554
    36  H    0.097073
    37  H    0.082931
    38  H    0.270812
    39  H    0.314233
    40  H    0.324792
    41  N   -0.560971
    42  C   -0.068617
    43  C    0.542090
    44  O   -0.519184
    45  C   -0.181237
    46  C    0.758838
    47  O   -0.766997
    48  O   -0.734076
    49  H    0.310037
    50  H    0.123805
    51  H    0.044350
    52  H    0.069010
    53  N   -0.404850
    54  C   -0.031084
    55  C    0.539059
    56  O   -0.583889
    57  H    0.271501
    58  H    0.083204
    59  H    0.048342
    60  N   -0.255881
    61  C   -0.017176
    62  C    0.290274
    63  O   -0.459330
    64  C   -0.207370
    65  C    0.739878
    66  N   -0.897906
    67  O   -0.570378
    68  H    0.253183
    69  H    0.140984
    70  H    0.141777
    71  H    0.051341
    72  H    0.391606
    73  H    0.416996
    74  N   -0.182941
    75  C   -0.248110
    76  C    0.563354
    77  O   -0.538127
    78  H    0.225589
    79  H    0.157870
    80  H    0.121107
    81  N   -0.445883
    82  C    0.275744
    83  C    0.468263
    84  O   -0.589748
    85  C    0.120022
    86  C    0.060279
    87  C   -0.385648
    88  C   -0.299313
    89  C    0.045496
    90  C   -0.068018
    91  C    0.145755
    92  O   -0.490607
    93  H    0.266669
    94  H    0.047710
    95  H   -0.015761
    96  H   -0.066586
    97  H    0.174077
    98  H    0.183131
    99  H    0.082430
   100  H    0.076575
   101  H    0.396766
   102  N   -0.700958
   103  C    0.349839
   104  C    0.524865
   105  O   -0.560688
   106  C    0.241379
   107  C    0.177872
   108  C   -0.434073
   109  C   -0.303539
   110  H    0.302198
   111  H    0.082098
   112  H   -0.062017
   113  H   -0.016407
   114  H   -0.068100
   115  H    0.053776
   116  H    0.102294
   117  H    0.125531
   118  H    0.059844
   119  H    0.070924
   120  H    0.077992
   121  N   -0.231639
   122  C   -0.080824
   123  C    0.661819
   124  O   -0.481267
   125  C    0.197173
   126  O   -0.612374
   127  H    0.070338
   128  H    0.061405
   129  H    0.019814
   130  H    0.004053
   131  H    0.399443
   132  N   -0.582894
   133  C    0.263163
   134  C    0.441321
   135  O   -0.519891
   136  C   -0.385828
   137  H    0.316346
   138  H    0.058871
   139  H    0.118817
   140  H    0.096265
   141  H    0.120640
   142  N   -0.470949
   143  C    0.293514
   144  C    0.285970
   145  O   -0.506176
   146  C   -0.413927
   147  H    0.289493
   148  H    0.051525
   149  H    0.098200
   150  H    0.142538
   151  H    0.086343
   152  N   -0.153595
   153  C    0.126468
   154  C    0.481751
   155  O   -0.549816
   156  C   -0.378449
   157  C   -0.035186
   158  C    0.681266
   159  O   -0.691270
   160  O   -0.618039
   161  H    0.159624
   162  H    0.033334
   163  H    0.181941
   164  H    0.047752
   165  H   -0.015090
   166  H    0.000506
   167  N   -0.079814
   168  C   -0.273530
   169  H    0.116980
   170  H    0.083374
   171  H    0.090708
   172  H    0.188713
   173  Ca   1.502093
   174  O   -0.811489
   175  H    0.369153
   176  H    0.439247
 Sum of ESP charges =   0.00000

 Normal termination of Gaussian 09 at Mon Sep 16 13:21:38 2019.
