 Gaussian 09, Revision D.01,
 Gaussian 09:  ES64L-G09RevD.01 24-Apr-2013

 ----------------------------------------------------------------------
 #maxdisk=50GB #B3LYP/SVP Density=Current scf=(tight) #IOP(5/87=12)Pop=
 (MK,readradii) iop(6/33=2) iop(6/42=6)
 ----------------------------------------------------------------------

 ------------
 SOL molecule
 ------------
 Symbolic Z-matrix:
 Charge =  0 Multiplicity = 1

                         Standard orientation:
 ---------------------------------------------------------------------
 Center     Atomic      Atomic             Coordinates (Angstroms)
 Number     Number       Type             X           Y           Z
 ---------------------------------------------------------------------
      1          6           0        2.406219    1.895910    4.979906
      2          6           0        1.556403    1.919745    3.710203
      3          8           0        2.061009    2.201996    2.626410
      4          1           0        3.461298    1.946400    4.711174
      5          1           0        2.149864    2.750537    5.605616
      6          1           0        2.215128    0.973604    5.528057
      7          7           0        0.247038    1.699035    3.843431
      8          6           0       -0.682042    1.784890    2.733638
      9          6           0       -1.072607    3.210183    2.346210
     10          8           0       -2.195489    3.641556    2.578489
     11          6           0       -1.843952    0.812260    2.919529
     12          6           0       -2.894905    0.926853    1.820728
     13          8           0       -2.503116    1.009831    0.643861
     14          8           0       -4.088946    0.836196    2.173924
     15          1           0       -0.168055    1.454524    4.729327
     16          1           0       -0.283555    1.379051    1.799077
     17          1           0       -2.283616    1.129004    3.866983
     18          1           0       -1.455546   -0.206110    3.056138
     19          7           0       -0.208708    3.827835    1.539932
     20          6           0       -0.408860    5.227502    1.265580
     21          6           0       -1.596520    5.490827    0.354634
     22          8           0       -2.492066    6.256748    0.731813
     23          6           0        0.902078    5.778460    0.704878
     24          6           0        1.023756    7.283541    0.457238
     25          6           0        2.354099    7.761042   -0.114759
     26          6           0        2.381201    9.282518   -0.171123
     27          7           0        3.607234    9.729215   -0.854792
     28          1           0        0.707063    3.402764    1.442059
     29          1           0       -0.562422    5.839419    2.157194
     30          1           0        1.043085    5.334607   -0.283156
     31          1           0        1.653331    5.570252    1.463805
     32          1           0        0.934320    7.833184    1.394785
     33          1           0        0.170555    7.607938   -0.134636
     34          1           0        2.536731    7.443471   -1.144270
     35          1           0        3.202316    7.481355    0.514211
     36          1           0        2.380743    9.753122    0.822422
     37          1           0        1.495488    9.667440   -0.681267
     38          1           0        3.819564   10.715862   -0.788889
     39          1           0        4.482728    9.264620   -0.640870
     40          1           0        3.474779    9.612338   -1.845042
     41          7           0       -1.681613    4.902337   -0.842587
     42          6           0       -2.785822    5.039355   -1.762613
     43          6           0       -4.141686    4.633921   -1.216208
     44          8           0       -5.131810    5.066393   -1.816560
     45          6           0       -2.461375    4.381057   -3.103724
     46          6           0       -2.408161    2.853085   -3.177003
     47          8           0       -1.994277    2.350300   -4.251436
     48          8           0       -2.675132    2.156661   -2.187498
     49          1           0       -0.885482    4.336620   -1.107806
     50          1           0       -2.945648    6.093725   -2.006250
     51          1           0       -1.469423    4.783905   -3.302333
     52          1           0       -3.135678    4.706053   -3.887939
     53          7           0       -4.191813    3.978394   -0.058162
     54          6           0       -5.406951    3.645082    0.668228
     55          6           0       -6.246601    2.509338    0.104692
     56          8           0       -7.454439    2.643797   -0.047119
     57          1           0       -3.321835    3.663895    0.329946
     58          1           0       -6.030827    4.537557    0.724503
     59          1           0       -5.195665    3.504807    1.730999
     60          7           0       -5.604240    1.429616   -0.348820
     61          6           0       -6.197806    0.343972   -1.098724
     62          6           0       -6.316867   -0.978170   -0.354167
     63          8           0       -6.839383   -1.907758   -0.969914
     64          6           0       -5.524852    0.273664   -2.460117
     65          6           0       -4.505334   -0.854274   -2.554145
     66          7           0       -4.408114   -1.594960   -3.670134
     67          8           0       -3.715136   -1.159313   -1.665192
     68          1           0       -4.609457    1.592401   -0.397889
     69          1           0       -7.220229    0.655463   -1.304208
     70          1           0       -5.108033    1.204217   -2.873315
     71          1           0       -6.304606   -0.144734   -3.079572
     72          1           0       -5.018331   -1.327527   -4.430275
     73          1           0       -3.849320   -2.425891   -3.671850
     74          7           0       -5.792829   -1.071403    0.869145
     75          6           0       -5.939565   -2.161518    1.810164
     76          6           0       -4.746489   -3.093392    1.872456
     77          8           0       -4.763076   -4.148650    2.500512
     78          1           0       -5.470021   -0.215221    1.309311
     79          1           0       -6.795880   -2.832839    1.703611
     80          1           0       -6.075204   -1.651549    2.775842
     81          7           0       -3.622805   -2.705550    1.254059
     82          6           0       -2.466446   -3.576828    1.160210
     83          6           0       -1.171451   -2.779408    1.297722
     84          8           0       -1.068256   -1.683887    0.751386
     85          6           0       -2.539907   -4.314025   -0.174310
     86          6           0       -3.763984   -5.138618   -0.482503
     87          6           0       -3.731463   -6.512037   -0.197613
     88          6           0       -4.871283   -4.555989   -1.109747
     89          6           0       -4.916351   -7.239568   -0.361434
     90          6           0       -6.067032   -5.268471   -1.142207
     91          6           0       -6.117620   -6.622207   -0.738551
     92          8           0       -7.275410   -7.338521   -0.831380
     93          1           0       -3.711605   -1.889852    0.666053
     94          1           0       -2.529078   -4.335297    1.939249
     95          1           0       -1.662984   -4.942782   -0.306869
     96          1           0       -2.443631   -3.569982   -0.961094
     97          1           0       -2.829843   -7.030361    0.100751
     98          1           0       -4.849079   -3.487684   -1.272939
     99          1           0       -4.848413   -8.320725   -0.402471
    100          1           0       -6.999920   -4.988169   -1.610770
    101          1           0       -7.959995   -6.778061   -1.207980
    102          7           0       -0.136379   -3.426334    1.847189
    103          6           0        1.270998   -3.088432    1.766494
    104          6           0        1.953202   -3.854635    0.643939
    105          8           0        1.991180   -5.082345    0.681162
    106          6           0        1.881418   -3.271076    3.144220
    107          6           0        1.065065   -2.696365    4.298939
    108          6           0        3.276354   -2.646098    3.184905
    109          6           0        1.496105   -3.045229    5.723508
    110          1           0       -0.390671   -4.324290    2.221369
    111          1           0        1.299667   -2.036346    1.480848
    112          1           0        1.937539   -4.337913    3.335035
    113          1           0        0.052400   -3.117225    4.260385
    114          1           0        1.023850   -1.625801    4.127200
    115          1           0        3.842263   -3.143644    2.399541
    116          1           0        3.263273   -1.573011    3.027383
    117          1           0        3.893395   -2.972158    4.019318
    118          1           0        1.623751   -4.120900    5.802492
    119          1           0        2.443260   -2.535792    5.932246
    120          1           0        0.779420   -2.743123    6.476166
    121          7           0        2.450027   -3.159177   -0.378217
    122          6           0        3.398275   -3.659393   -1.356997
    123          6           0        4.848070   -3.511611   -0.925192
    124          8           0        5.108822   -2.724358   -0.019411
    125          6           0        3.082036   -2.986075   -2.693535
    126          8           0        3.387397   -1.615361   -2.654809
    127          1           0        2.398779   -2.147714   -0.315635
    128          1           0        3.223012   -4.724244   -1.426100
    129          1           0        2.038287   -3.155261   -2.961423
    130          1           0        3.686997   -3.436641   -3.487143
    131          1           0        2.624058   -1.143153   -2.318309
    132          7           0        5.755537   -4.148042   -1.672494
    133          6           0        7.183098   -4.042052   -1.414353
    134          6           0        7.710844   -2.627304   -1.563258
    135          8           0        8.646094   -2.183139   -0.897357
    136          6           0        7.899286   -4.929306   -2.434968
    137          1           0        5.457226   -4.756418   -2.416126
    138          1           0        7.400828   -4.484927   -0.444273
    139          1           0        7.670847   -5.981156   -2.281578
    140          1           0        7.630454   -4.623965   -3.448327
    141          1           0        8.961692   -4.768850   -2.237619
    142          7           0        7.134233   -1.792111   -2.434391
    143          6           0        7.472879   -0.393416   -2.600137
    144          6           0        7.186028    0.436602   -1.363898
    145          8           0        7.984686    1.262327   -0.917440
    146          6           0        6.636752    0.085929   -3.780823
    147          1           0        6.426059   -2.159838   -3.056779
    148          1           0        8.537607   -0.322750   -2.806437
    149          1           0        5.596045   -0.149514   -3.550613
    150          1           0        6.722939    1.175024   -3.898476
    151          1           0        6.935788   -0.248142   -4.777504
    152          7           0        5.964274    0.227374   -0.871516
    153          6           0        5.389970    1.030772    0.185663
    154          6           0        6.061217    0.702348    1.518129
    155          8           0        6.519201    1.652313    2.138385
    156          6           0        3.895923    0.726248    0.227962
    157          6           0        3.201764    1.334477   -0.989248
    158          6           0        1.824649    0.685905   -0.934404
    159          8           0        1.566719   -0.430426   -1.421618
    160          8           0        0.855436    1.354325   -0.527785
    161          1           0        5.489180   -0.650664   -1.041624
    162          1           0        5.652013    2.072908    0.002668
    163          1           0        3.524863    1.194626    1.139354
    164          1           0        3.769251   -0.354013    0.192047
    165          1           0        3.726984    1.002473   -1.885249
    166          1           0        3.067008    2.412742   -1.026486
    167          7           0        6.326773   -0.574396    1.795985
    168          6           0        7.204547   -0.996389    2.870011
    169          1           0        8.189234   -0.550903    2.729558
    170          1           0        6.792614   -0.672579    3.825343
    171          1           0        7.293217   -2.083012    2.862070
    172          1           0        6.076526   -1.225944    1.070408
    173         20           0       -1.257070   -0.014366   -1.267314
    174          8           0       -0.199943    0.259517   -3.808725
    175          1           0        0.269891   -0.314342   -4.404495
    176          1           0       -0.572414    0.942409   -4.374520
 ---------------------------------------------------------------------

 SCF Done:  E(RB3LYP) =  -5333.59806917     A.U. after   21 cycles

 The electronic state is 1-A.
 Alpha  occ. eigenvalues -- -145.37611 -19.14282 -19.13129 -19.13070 -19.12175
 Alpha  occ. eigenvalues --  -19.11341 -19.10704 -19.09853 -19.09490 -19.09373
 Alpha  occ. eigenvalues --  -19.08553 -19.07853 -19.07786 -19.07055 -19.06667
 Alpha  occ. eigenvalues --  -19.06106 -19.05626 -19.05615 -19.03935 -19.03853
 Alpha  occ. eigenvalues --  -19.03577 -19.03183 -19.02082 -19.01824 -15.43309
 Alpha  occ. eigenvalues --  -14.60492 -14.38906 -14.36897 -14.35699 -14.35603
 Alpha  occ. eigenvalues --  -14.35365 -14.35142 -14.33748 -14.33694 -14.33108
 Alpha  occ. eigenvalues --  -14.31803 -14.31752 -14.31098 -14.29461 -14.28665
 Alpha  occ. eigenvalues --  -12.56930 -12.56897 -12.56872 -10.36782 -10.31136
 Alpha  occ. eigenvalues --  -10.30019 -10.29439 -10.29272 -10.28648 -10.28523
 Alpha  occ. eigenvalues --  -10.28188 -10.26382 -10.26282 -10.26166 -10.25852
 Alpha  occ. eigenvalues --  -10.25640 -10.24986 -10.24943 -10.24726 -10.24588
 Alpha  occ. eigenvalues --  -10.24168 -10.23971 -10.23607 -10.23283 -10.22634
 Alpha  occ. eigenvalues --  -10.22591 -10.22569 -10.22506 -10.22503 -10.22496
 Alpha  occ. eigenvalues --  -10.22322 -10.21949 -10.21505 -10.20071 -10.19817
 Alpha  occ. eigenvalues --  -10.19680 -10.19654 -10.19578 -10.19578 -10.19149
 Alpha  occ. eigenvalues --  -10.19058 -10.18932 -10.18156 -10.17829 -10.17757
 Alpha  occ. eigenvalues --  -10.17528 -10.17314 -10.17105 -10.16979 -10.16823
 Alpha  occ. eigenvalues --  -10.16788 -10.16554 -10.16446 -10.16296 -10.16210
 Alpha  occ. eigenvalues --  -10.15574 -10.14719  -1.79995  -1.15804  -1.07576
 Alpha  occ. eigenvalues --   -1.07392  -1.07211  -1.06047  -1.04684  -1.03836
 Alpha  occ. eigenvalues --   -1.03542  -1.03012  -1.02866  -1.02752  -1.02437
 Alpha  occ. eigenvalues --   -1.01249  -1.00587  -1.00429  -0.99927  -0.99291
 Alpha  occ. eigenvalues --   -0.99238  -0.98643  -0.98623  -0.97883  -0.97463
 Alpha  occ. eigenvalues --   -0.96666  -0.95921  -0.95844  -0.93934  -0.92386
 Alpha  occ. eigenvalues --   -0.92278  -0.92011  -0.91638  -0.91385  -0.90820
 Alpha  occ. eigenvalues --   -0.90479  -0.89866  -0.89725  -0.89380  -0.88198
 Alpha  occ. eigenvalues --   -0.88063  -0.87727  -0.87530  -0.86575  -0.85508
 Alpha  occ. eigenvalues --   -0.83112  -0.82520  -0.81904  -0.81143  -0.78511
 Alpha  occ. eigenvalues --   -0.77995  -0.77374  -0.76808  -0.76214  -0.75951
 Alpha  occ. eigenvalues --   -0.75847  -0.74820  -0.74189  -0.74179  -0.73489
 Alpha  occ. eigenvalues --   -0.72007  -0.71700  -0.71431  -0.71042  -0.70543
 Alpha  occ. eigenvalues --   -0.69107  -0.69047  -0.68023  -0.67967  -0.67253
 Alpha  occ. eigenvalues --   -0.66110  -0.65386  -0.64926  -0.64753  -0.63892
 Alpha  occ. eigenvalues --   -0.63740  -0.63243  -0.62942  -0.62281  -0.61378
 Alpha  occ. eigenvalues --   -0.60410  -0.60051  -0.59885  -0.59698  -0.59616
 Alpha  occ. eigenvalues --   -0.59051  -0.58226  -0.58080  -0.57764  -0.57310
 Alpha  occ. eigenvalues --   -0.57113  -0.56629  -0.56522  -0.56419  -0.55534
 Alpha  occ. eigenvalues --   -0.55250  -0.54884  -0.54391  -0.54274  -0.53993
 Alpha  occ. eigenvalues --   -0.53862  -0.53178  -0.52925  -0.52795  -0.52487
 Alpha  occ. eigenvalues --   -0.52307  -0.52106  -0.51953  -0.51519  -0.50963
 Alpha  occ. eigenvalues --   -0.50686  -0.50626  -0.50220  -0.50081  -0.49696
 Alpha  occ. eigenvalues --   -0.49159  -0.49076  -0.48794  -0.48514  -0.48090
 Alpha  occ. eigenvalues --   -0.48004  -0.47663  -0.47490  -0.47389  -0.47111
 Alpha  occ. eigenvalues --   -0.47039  -0.46967  -0.46614  -0.46360  -0.46332
 Alpha  occ. eigenvalues --   -0.46103  -0.45537  -0.45199  -0.45091  -0.44908
 Alpha  occ. eigenvalues --   -0.44810  -0.44515  -0.44129  -0.44004  -0.43964
 Alpha  occ. eigenvalues --   -0.43905  -0.43790  -0.43500  -0.43442  -0.43251
 Alpha  occ. eigenvalues --   -0.43005  -0.42888  -0.42508  -0.42312  -0.42278
 Alpha  occ. eigenvalues --   -0.42215  -0.41947  -0.41792  -0.41416  -0.41381
 Alpha  occ. eigenvalues --   -0.41268  -0.41087  -0.40944  -0.40824  -0.40670
 Alpha  occ. eigenvalues --   -0.40481  -0.40342  -0.40247  -0.40187  -0.40018
 Alpha  occ. eigenvalues --   -0.39922  -0.39818  -0.39643  -0.39532  -0.39516
 Alpha  occ. eigenvalues --   -0.39382  -0.39238  -0.39021  -0.38946  -0.38785
 Alpha  occ. eigenvalues --   -0.38740  -0.38687  -0.38583  -0.38446  -0.38247
 Alpha  occ. eigenvalues --   -0.38027  -0.37984  -0.37827  -0.37653  -0.37586
 Alpha  occ. eigenvalues --   -0.37506  -0.37313  -0.37208  -0.37134  -0.37033
 Alpha  occ. eigenvalues --   -0.36898  -0.36707  -0.36565  -0.36464  -0.36239
 Alpha  occ. eigenvalues --   -0.36160  -0.35756  -0.35642  -0.35453  -0.35246
 Alpha  occ. eigenvalues --   -0.34785  -0.34391  -0.34294  -0.34218  -0.34191
 Alpha  occ. eigenvalues --   -0.34065  -0.33857  -0.33597  -0.33523  -0.33022
 Alpha  occ. eigenvalues --   -0.32887  -0.32674  -0.32603  -0.32287  -0.32185
 Alpha  occ. eigenvalues --   -0.32060  -0.31454  -0.31290  -0.31215  -0.30889
 Alpha  occ. eigenvalues --   -0.30632  -0.30525  -0.30415  -0.29788  -0.29065
 Alpha  occ. eigenvalues --   -0.28671  -0.28213  -0.28097  -0.27759  -0.27294
 Alpha  occ. eigenvalues --   -0.27131  -0.26374  -0.26293  -0.26188  -0.25861
 Alpha  occ. eigenvalues --   -0.25439  -0.25383  -0.25150  -0.25115  -0.24906
 Alpha  occ. eigenvalues --   -0.24797  -0.24321  -0.23568  -0.23097  -0.23053
 Alpha  occ. eigenvalues --   -0.22762  -0.22597  -0.22558  -0.22305  -0.22238
 Alpha  occ. eigenvalues --   -0.21575  -0.21134  -0.20969  -0.20859  -0.20756
 Alpha  occ. eigenvalues --   -0.20560  -0.20483  -0.19762  -0.19466  -0.19306
 Alpha  occ. eigenvalues --   -0.18426  -0.18008  -0.17785
 Alpha virt. eigenvalues --   -0.12294  -0.06645  -0.06165  -0.02758  -0.01368
 Alpha virt. eigenvalues --   -0.01056  -0.00216   0.00727   0.00784   0.00832
 Alpha virt. eigenvalues --    0.01300   0.01377   0.01490   0.01804   0.01959

 Mulliken charges:
               1
     1  C    0.044758
     2  C    0.038214
     3  O   -0.289752
     4  H    0.045710
     5  H    0.031218
     6  H    0.021454
     7  N   -0.111005
     8  C    0.032110
     9  C    0.077372
    10  O   -0.262961
    11  C    0.087166
    12  C    0.168199
    13  O   -0.480368
    14  O   -0.378275
    15  H    0.116683
    16  H    0.045550
    17  H   -0.022103
    18  H    0.008926
    19  N   -0.108687
    20  C    0.178364
    21  C    0.009241
    22  O   -0.262975
    23  C    0.020420
    24  C   -0.004492
    25  C   -0.015843
    26  C    0.024265
    27  N    0.080134
    28  H    0.145603
    29  H   -0.015177
    30  H    0.006708
    31  H    0.019904
    32  H    0.003895
    33  H    0.033442
    34  H    0.018185
    35  H    0.032903
    36  H    0.076258
    37  H    0.083422
    38  H    0.184499
    39  H    0.193071
    40  H    0.184955
    41  N   -0.131115
    42  C    0.157270
    43  C    0.064477
    44  O   -0.301015
    45  C    0.034705
    46  C    0.110870
    47  O   -0.411640
    48  O   -0.410799
    49  H    0.119943
    50  H   -0.007097
    51  H   -0.023644
    52  H    0.027967
    53  N   -0.139932
    54  C    0.236790
    55  C    0.019416
    56  O   -0.285039
    57  H    0.155323
    58  H    0.000766
    59  H    0.038213
    60  N   -0.161725
    61  C    0.153143
    62  C    0.056517
    63  O   -0.312014
    64  C    0.105050
    65  C    0.047424
    66  N   -0.025451
    67  O   -0.375734
    68  H    0.151835
    69  H    0.025306
    70  H    0.090012
    71  H   -0.005211
    72  H    0.125142
    73  H    0.126801
    74  N   -0.157104
    75  C    0.224378
    76  C    0.024225
    77  O   -0.295550
    78  H    0.163727
    79  H    0.033229
    80  H    0.039446
    81  N   -0.161698
    82  C    0.113404
    83  C    0.156894
    84  O   -0.364245
    85  C    0.137723
    86  C   -0.032796
    87  C   -0.000144
    88  C    0.025299
    89  C   -0.036828
    90  C   -0.017911
    91  C    0.142528
    92  O   -0.192776
    93  H    0.157936
    94  H    0.000789
    95  H   -0.020868
    96  H   -0.047456
    97  H   -0.036392
    98  H   -0.004634
    99  H   -0.026387
   100  H   -0.044035
   101  H    0.172130
   102  N   -0.121110
   103  C    0.180443
   104  C    0.069005
   105  O   -0.285350
   106  C   -0.110000
   107  C    0.011974
   108  C    0.061210
   109  C    0.039299
   110  H    0.131692
   111  H   -0.001195
   112  H   -0.014932
   113  H   -0.010150
   114  H   -0.008712
   115  H    0.005224
   116  H    0.023809
   117  H    0.002930
   118  H    0.003490
   119  H    0.007611
   120  H    0.011734
   121  N   -0.133679
   122  C    0.085539
   123  C    0.116476
   124  O   -0.278391
   125  C    0.263780
   126  O   -0.348786
   127  H    0.140471
   128  H    0.007337
   129  H    0.004463
   130  H   -0.032450
   131  H    0.170563
   132  N   -0.130353
   133  C    0.091674
   134  C    0.063174
   135  O   -0.261507
   136  C    0.021885
   137  H    0.124078
   138  H    0.025247
   139  H    0.031237
   140  H    0.010385
   141  H    0.046353
   142  N   -0.143733
   143  C    0.130186
   144  C    0.075022
   145  O   -0.254306
   146  C   -0.000895
   147  H    0.107958
   148  H    0.002621
   149  H    0.037421
   150  H    0.012886
   151  H    0.014668
   152  N   -0.189443
   153  C    0.130918
   154  C    0.050207
   155  O   -0.278004
   156  C   -0.048072
   157  C    0.139215
   158  C    0.141751
   159  O   -0.442746
   160  O   -0.406131
   161  H    0.138672
   162  H   -0.015507
   163  H    0.050358
   164  H   -0.009540
   165  H   -0.006066
   166  H   -0.014349
   167  N   -0.163740
   168  C    0.152456
   169  H    0.030724
   170  H    0.012817
   171  H    0.008815
   172  H    0.125533
   173  Ca   1.301694
   174  O   -0.306323
   175  H    0.159364
   176  H    0.170671
 Sum of Mulliken charges =   0.00000

 Dipole moment (field-independent basis, Debye):
    X=             26.5680    Y=             22.4505    Z=             -9.3241  Tot=             36.0115
 Quadrupole moment (field-independent basis, Debye-Ang):
   XX=           -716.3401   YY=           -226.4799   ZZ=           -519.8998
   XY=            149.3084   XZ=            -23.9599   YZ=              3.7675

 ESP charges:
               1
     1  C   -0.440775
     2  C    0.863943
     3  O   -0.668020
     4  H    0.129793
     5  H    0.108779
     6  H    0.114407
     7  N   -0.843242
     8  C    0.520929
     9  C    0.485035
    10  O   -0.518183
    11  C   -0.307240
    12  C    0.691713
    13  O   -0.900444
    14  O   -0.624354
    15  H    0.365865
    16  H    0.008494
    17  H    0.041680
    18  H    0.077188
    19  N   -0.562849
    20  C    0.326704
    21  C    0.263236
    22  O   -0.528639
    23  C   -0.322940
    24  C    0.056337
    25  C   -0.097808
    26  C    0.153201
    27  N   -0.293796
    28  H    0.320201
    29  H    0.040747
    30  H    0.088403
    31  H    0.123891
    32  H    0.018095
    33  H    0.048206
    34  H    0.036980
    35  H    0.052503
    36  H    0.052935
    37  H    0.045130
    38  H    0.302043
    39  H    0.307393
    40  H    0.304282
    41  N   -0.268464
    42  C    0.128636
    43  C    0.387258
    44  O   -0.545505
    45  C   -0.418450
    46  C    0.928158
    47  O   -0.770054
    48  O   -0.781108
    49  H    0.237047
    50  H    0.066217
    51  H    0.062560
    52  H    0.126054
    53  N    0.032518
    54  C   -0.346519
    55  C    0.681398
    56  O   -0.593657
    57  H    0.225427
    58  H    0.113451
    59  H    0.154946
    60  N   -0.496846
    61  C    0.190936
    62  C    0.255469
    63  O   -0.508959
    64  C   -0.226563
    65  C    0.551330
    66  N   -0.762248
    67  O   -0.616312
    68  H    0.269320
    69  H    0.098128
    70  H    0.152946
    71  H    0.058248
    72  H    0.371726
    73  H    0.380567
    74  N    0.045749
    75  C   -0.374834
    76  C    0.664113
    77  O   -0.568570
    78  H    0.160541
    79  H    0.148938
    80  H    0.140660
    81  N   -0.608193
    82  C    0.276756
    83  C    0.510446
    84  O   -0.630754
    85  C   -0.101402
    86  C    0.216928
    87  C   -0.302512
    88  C   -0.454487
    89  C   -0.094733
    90  C   -0.120247
    91  C    0.290384
    92  O   -0.545633
    93  H    0.414625
    94  H    0.034350
    95  H    0.017584
    96  H   -0.015691
    97  H    0.152912
    98  H    0.333855
    99  H    0.105822
   100  H    0.089139
   101  H    0.412070
   102  N   -0.558097
   103  C    0.023650
   104  C    0.582082
   105  O   -0.562303
   106  C    0.282099
   107  C    0.235827
   108  C   -0.260680
   109  C   -0.306523
   110  H    0.302407
   111  H    0.141571
   112  H   -0.066550
   113  H   -0.050404
   114  H   -0.069032
   115  H    0.060790
   116  H    0.013335
   117  H    0.067532
   118  H    0.070091
   119  H    0.044310
   120  H    0.082873
   121  N   -0.271219
   122  C   -0.112827
   123  C    0.564070
   124  O   -0.491454
   125  C    0.095262
   126  O   -0.570379
   127  H    0.096470
   128  H    0.078412
   129  H    0.062402
   130  H    0.024336
   131  H    0.409818
   132  N   -0.438301
   133  C    0.087722
   134  C    0.436076
   135  O   -0.510954
   136  C   -0.314140
   137  H    0.299078
   138  H    0.098502
   139  H    0.107051
   140  H    0.072671
   141  H    0.119386
   142  N   -0.280459
   143  C   -0.079166
   144  C    0.441733
   145  O   -0.497760
   146  C   -0.217259
   147  H    0.247528
   148  H    0.113062
   149  H    0.032802
   150  H    0.084041
   151  H    0.077609
   152  N   -0.108753
   153  C   -0.202123
   154  C    0.439243
   155  O   -0.530236
   156  C   -0.061897
   157  C    0.028394
   158  C    0.692746
   159  O   -0.651594
   160  O   -0.731649
   161  H    0.278961
   162  H    0.112071
   163  H    0.118015
   164  H   -0.053649
   165  H   -0.057994
   166  H    0.015014
   167  N   -0.061816
   168  C   -0.280695
   169  H    0.125953
   170  H    0.089867
   171  H    0.100937
   172  H    0.135347
   173  Ca   1.670720
   174  O   -0.907365
   175  H    0.420259
   176  H    0.447860
 Sum of ESP charges =   0.00000

 Normal termination of Gaussian 09 at Mon Sep 16 15:55:06 2019.
