 Gaussian 09, Revision D.01,
 Gaussian 09:  ES64L-G09RevD.01 24-Apr-2013

 ----------------------------------------------------------------------
 #maxdisk=50GB #B3LYP/SVP Density=Current scf=(tight) #IOP(5/87=12)Pop=
 (MK,readradii) iop(6/33=2) iop(6/42=6)
 ----------------------------------------------------------------------

 ------------
 SOL molecule
 ------------
 Symbolic Z-matrix:
 Charge =  0 Multiplicity = 1

                         Standard orientation:
 ---------------------------------------------------------------------
 Center     Atomic      Atomic             Coordinates (Angstroms)
 Number     Number       Type             X           Y           Z
 ---------------------------------------------------------------------
      1          6           0        2.403376    0.886081    5.368660
      2          6           0        1.674864    0.980157    4.040759
      3          8           0        2.326498    0.625032    3.066717
      4          1           0        3.255237    1.565606    5.363995
      5          1           0        1.724427    1.160956    6.176477
      6          1           0        2.754503   -0.135326    5.519499
      7          7           0        0.400539    1.386774    3.946109
      8          6           0       -0.297013    1.601753    2.689086
      9          6           0       -0.182717    3.028061    2.171513
     10          8           0       -1.072064    3.859167    2.340115
     11          6           0       -1.760121    1.245930    2.919313
     12          6           0       -2.702234    1.445806    1.742677
     13          8           0       -3.892532    1.692461    2.057723
     14          8           0       -2.263824    1.400091    0.572417
     15          1           0       -0.042961    1.621364    4.820394
     16          1           0        0.183491    0.963423    1.949796
     17          1           0       -2.190996    1.848751    3.715839
     18          1           0       -1.808451    0.170591    3.080278
     19          7           0        1.056193    3.381545    1.837221
     20          6           0        1.534555    4.668049    1.361008
     21          6           0        0.607668    5.380825    0.379310
     22          8           0        0.699280    6.598457    0.405373
     23          6           0        2.899684    4.396618    0.740970
     24          6           0        3.710565    5.635563    0.385460
     25          6           0        4.970010    5.048396   -0.240986
     26          6           0        6.015689    6.101049   -0.580214
     27          7           0        6.991001    5.501921   -1.502339
     28          1           0        1.763001    2.801941    2.258981
     29          1           0        1.589644    5.368003    2.200013
     30          1           0        2.755716    3.754375   -0.133671
     31          1           0        3.385219    3.766424    1.483945
     32          1           0        4.002031    6.221751    1.261662
     33          1           0        3.182186    6.196779   -0.387619
     34          1           0        4.826993    4.324758   -1.053387
     35          1           0        5.445677    4.488780    0.573551
     36          1           0        6.389062    6.526220    0.355693
     37          1           0        5.575015    6.946062   -1.115246
     38          1           0        7.680384    4.933157   -1.030790
     39          1           0        6.543048    4.977015   -2.239775
     40          1           0        7.439679    6.266017   -1.981656
     41          7           0       -0.046399    4.698337   -0.570693
     42          6           0       -1.065802    5.307344   -1.405515
     43          6           0       -2.476566    5.326916   -0.841015
     44          8           0       -3.256000    6.167713   -1.292837
     45          6           0       -1.057305    4.807951   -2.844380
     46          6           0       -1.386400    3.321756   -2.887053
     47          8           0       -0.433846    2.572393   -3.210001
     48          8           0       -2.490983    2.869833   -2.508420
     49          1           0       -0.158478    3.697518   -0.486426
     50          1           0       -0.791622    6.356713   -1.546055
     51          1           0       -0.080306    4.929147   -3.300103
     52          1           0       -1.737918    5.377225   -3.485701
     53          7           0       -2.857211    4.560708    0.180766
     54          6           0       -4.138416    4.647379    0.842281
     55          6           0       -5.299176    3.977613    0.115886
     56          8           0       -6.447390    4.412852    0.151531
     57          1           0       -2.247685    3.873290    0.606012
     58          1           0       -4.408716    5.665150    1.110573
     59          1           0       -4.048829    4.200719    1.834536
     60          7           0       -5.015661    2.902944   -0.625468
     61          6           0       -5.964586    2.016640   -1.276778
     62          6           0       -6.599071    0.880779   -0.498352
     63          8           0       -7.506805    0.176555   -0.937884
     64          6           0       -5.373178    1.546490   -2.612404
     65          6           0       -4.729614    0.178905   -2.537323
     66          7           0       -5.125698   -0.665368   -3.500402
     67          8           0       -3.935948   -0.053105   -1.620554
     68          1           0       -4.086514    2.516374   -0.507358
     69          1           0       -6.759689    2.695180   -1.590299
     70          1           0       -4.639080    2.289669   -2.945097
     71          1           0       -6.157791    1.473393   -3.361162
     72          1           0       -5.742339   -0.345936   -4.231645
     73          1           0       -4.848542   -1.634088   -3.552020
     74          7           0       -6.172451    0.694669    0.745939
     75          6           0       -6.539892   -0.454666    1.560503
     76          6           0       -5.580345   -1.640486    1.559978
     77          8           0       -5.940916   -2.753709    1.933239
     78          1           0       -5.376560    1.256774    1.012573
     79          1           0       -7.474439   -0.891461    1.214044
     80          1           0       -6.682200   -0.223523    2.615265
     81          7           0       -4.348917   -1.489974    1.050339
     82          6           0       -3.452200   -2.596322    0.807663
     83          6           0       -2.001313   -2.152299    0.927538
     84          8           0       -1.513636   -1.233528    0.267515
     85          6           0       -3.665268   -3.294106   -0.528975
     86          6           0       -4.928936   -4.126187   -0.627386
     87          6           0       -4.877274   -5.517786   -0.515218
     88          6           0       -6.174056   -3.552756   -0.886720
     89          6           0       -6.017068   -6.334159   -0.543569
     90          6           0       -7.338059   -4.338593   -0.990446
     91          6           0       -7.256795   -5.729949   -0.847886
     92          8           0       -8.337781   -6.506454   -1.157577
     93          1           0       -4.050748   -0.550195    0.857696
     94          1           0       -3.530323   -3.413345    1.528614
     95          1           0       -2.770268   -3.860286   -0.751267
     96          1           0       -3.740108   -2.562952   -1.347029
     97          1           0       -3.929020   -5.945059   -0.204811
     98          1           0       -6.184126   -2.484813   -0.984165
     99          1           0       -5.924318   -7.398892   -0.391776
    100          1           0       -8.282278   -3.874013   -1.239275
    101          1           0       -9.117080   -5.981581   -1.307583
    102          7           0       -1.257651   -2.849180    1.791439
    103          6           0        0.195873   -2.897978    1.774494
    104          6           0        0.670181   -3.814554    0.661786
    105          8           0        0.251883   -4.965325    0.528927
    106          6           0        0.824679   -3.320577    3.096846
    107          6           0        0.150590   -2.853637    4.378123
    108          6           0        2.335430   -3.105263    3.120760
    109          6           0        0.573826   -3.717270    5.571903
    110          1           0       -1.798951   -3.487467    2.343511
    111          1           0        0.510881   -1.883076    1.535237
    112          1           0        0.663848   -4.393631    3.143626
    113          1           0       -0.923313   -3.006226    4.342802
    114          1           0        0.295020   -1.782392    4.534881
    115          1           0        2.702920   -3.671391    2.263934
    116          1           0        2.647646   -2.061263    3.101151
    117          1           0        2.771114   -3.439833    4.071151
    118          1           0        1.610235   -3.588389    5.864386
    119          1           0       -0.072706   -3.394373    6.380008
    120          1           0        0.570111   -4.782477    5.340558
    121          7           0        1.626652   -3.261457   -0.089978
    122          6           0        2.421416   -3.928043   -1.108807
    123          6           0        3.902407   -3.922320   -0.738359
    124          8           0        4.293098   -3.193619    0.171671
    125          6           0        2.191273   -3.362865   -2.501433
    126          8           0        2.823141   -2.104361   -2.600484
    127          1           0        1.864653   -2.312624    0.154299
    128          1           0        2.134840   -4.982756   -1.077893
    129          1           0        1.135829   -3.255107   -2.747656
    130          1           0        2.588397   -4.099887   -3.198206
    131          1           0        2.179118   -1.462550   -2.300795
    132          7           0        4.710403   -4.761609   -1.393597
    133          6           0        6.145289   -4.825131   -1.267238
    134          6           0        6.911233   -3.530585   -1.530070
    135          8           0        7.739757   -3.203670   -0.684626
    136          6           0        6.781205   -6.035814   -1.946029
    137          1           0        4.321319   -5.461734   -2.006002
    138          1           0        6.168521   -4.960377   -0.183232
    139          1           0        7.866294   -6.115423   -1.952649
    140          1           0        6.391951   -6.974746   -1.572548
    141          1           0        6.404392   -6.046045   -2.967454
    142          7           0        6.622983   -2.782607   -2.591173
    143          6           0        7.081347   -1.419508   -2.719488
    144          6           0        6.732564   -0.473140   -1.571343
    145          8           0        7.544489    0.382978   -1.230548
    146          6           0        6.420775   -0.898924   -3.991942
    147          1           0        6.035497   -3.032060   -3.379167
    148          1           0        8.177662   -1.449036   -2.757184
    149          1           0        5.369428   -1.180927   -4.015295
    150          1           0        6.456445    0.191300   -3.959727
    151          1           0        6.993209   -1.305128   -4.825919
    152          7           0        5.604209   -0.609232   -0.866082
    153          6           0        5.132765    0.346993    0.118487
    154          6           0        5.581168   -0.005571    1.527151
    155          8           0        5.951655    0.919715    2.244706
    156          6           0        3.600669    0.371447    0.087122
    157          6           0        3.074392    1.049522   -1.172619
    158          6           0        1.566652    0.884162   -1.288704
    159          8           0        1.058169    0.024576   -2.046765
    160          8           0        0.837260    1.534262   -0.504512
    161          1           0        5.052502   -1.444635   -0.963654
    162          1           0        5.487023    1.339694   -0.142370
    163          1           0        3.322173    1.061307    0.885892
    164          1           0        3.181448   -0.614692    0.315781
    165          1           0        3.551122    0.565634   -2.031211
    166          1           0        3.515804    2.028866   -1.307675
    167          7           0        5.702192   -1.277067    1.896543
    168          6           0        6.477472   -1.785468    3.017689
    169          1           0        7.540735   -1.673332    2.804420
    170          1           0        6.226388   -1.224565    3.917798
    171          1           0        6.248118   -2.839638    3.170544
    172          1           0        5.383612   -1.985064    1.258306
    173         20           0       -1.439400    0.536737   -1.602311
    174          8           0       -1.265474   -2.041879   -2.432186
    175          1           0       -1.149176   -2.907953   -2.048272
    176          1           0       -1.240842   -2.180067   -3.379655
 ---------------------------------------------------------------------

 SCF Done:  E(RB3LYP) =  -5333.60219787     A.U. after   19 cycles

 The electronic state is 1-A.
 Alpha  occ. eigenvalues -- -145.34709 -19.18159 -19.14555 -19.14282 -19.13916
 Alpha  occ. eigenvalues --  -19.11780 -19.11551 -19.11511 -19.11427 -19.09446
 Alpha  occ. eigenvalues --  -19.09376 -19.08584 -19.07554 -19.07245 -19.06955
 Alpha  occ. eigenvalues --  -19.06011 -19.05874 -19.05226 -19.05191 -19.04087
 Alpha  occ. eigenvalues --  -19.03601 -19.03228 -19.02743 -19.02740 -15.40466
 Alpha  occ. eigenvalues --  -14.58265 -14.40161 -14.38124 -14.37498 -14.36838
 Alpha  occ. eigenvalues --  -14.36827 -14.36057 -14.34838 -14.33249 -14.32757
 Alpha  occ. eigenvalues --  -14.32493 -14.32442 -14.29958 -14.28965 -14.28660
 Alpha  occ. eigenvalues --  -12.54087 -12.54043 -12.54018 -10.34353 -10.32920
 Alpha  occ. eigenvalues --  -10.30530 -10.29803 -10.29723 -10.29685 -10.28491
 Alpha  occ. eigenvalues --  -10.28376 -10.26545 -10.26310 -10.26295 -10.26268
 Alpha  occ. eigenvalues --  -10.26123 -10.26072 -10.26027 -10.25763 -10.24913
 Alpha  occ. eigenvalues --  -10.24799 -10.23997 -10.23916 -10.23786 -10.23154
 Alpha  occ. eigenvalues --  -10.22943 -10.22835 -10.22783 -10.22462 -10.22300
 Alpha  occ. eigenvalues --  -10.22246 -10.22167 -10.21761 -10.21335 -10.21146
 Alpha  occ. eigenvalues --  -10.20813 -10.20557 -10.19690 -10.19586 -10.19477
 Alpha  occ. eigenvalues --  -10.19026 -10.18969 -10.18667 -10.18322 -10.18230
 Alpha  occ. eigenvalues --  -10.18053 -10.17562 -10.17532 -10.17038 -10.16940
 Alpha  occ. eigenvalues --  -10.16909 -10.16886 -10.16824 -10.16731 -10.16158
 Alpha  occ. eigenvalues --  -10.15636 -10.14289  -1.77433  -1.13618  -1.07613
 Alpha  occ. eigenvalues --   -1.05445  -1.05346  -1.05107  -1.04853  -1.04426
 Alpha  occ. eigenvalues --   -1.03977  -1.03659  -1.03340  -1.03054  -1.03017
 Alpha  occ. eigenvalues --   -1.02692  -1.02612  -1.01625  -1.01249  -1.00399
 Alpha  occ. eigenvalues --   -1.00032  -0.99504  -0.98719  -0.98310  -0.98273
 Alpha  occ. eigenvalues --   -0.97077  -0.96340  -0.95573  -0.94969  -0.94136
 Alpha  occ. eigenvalues --   -0.93696  -0.92348  -0.91739  -0.91729  -0.91221
 Alpha  occ. eigenvalues --   -0.90949  -0.89512  -0.89248  -0.89197  -0.89070
 Alpha  occ. eigenvalues --   -0.88287  -0.88134  -0.87196  -0.85831  -0.84733
 Alpha  occ. eigenvalues --   -0.82949  -0.82761  -0.81937  -0.81368  -0.79724
 Alpha  occ. eigenvalues --   -0.78639  -0.78040  -0.77586  -0.77281  -0.75414
 Alpha  occ. eigenvalues --   -0.75118  -0.74925  -0.73726  -0.73165  -0.72356
 Alpha  occ. eigenvalues --   -0.72329  -0.72126  -0.71880  -0.71866  -0.70542
 Alpha  occ. eigenvalues --   -0.69962  -0.69337  -0.68541  -0.67611  -0.67489
 Alpha  occ. eigenvalues --   -0.66911  -0.66405  -0.65182  -0.64762  -0.64160
 Alpha  occ. eigenvalues --   -0.63982  -0.63659  -0.63275  -0.63098  -0.62220
 Alpha  occ. eigenvalues --   -0.60891  -0.60661  -0.60491  -0.60208  -0.59774
 Alpha  occ. eigenvalues --   -0.59445  -0.59415  -0.59159  -0.58179  -0.57847
 Alpha  occ. eigenvalues --   -0.57826  -0.57597  -0.57204  -0.56513  -0.56373
 Alpha  occ. eigenvalues --   -0.55986  -0.55507  -0.55421  -0.55171  -0.54213
 Alpha  occ. eigenvalues --   -0.54121  -0.53967  -0.53368  -0.53171  -0.53085
 Alpha  occ. eigenvalues --   -0.52629  -0.52427  -0.52305  -0.51925  -0.51371
 Alpha  occ. eigenvalues --   -0.51055  -0.50840  -0.50725  -0.50144  -0.49845
 Alpha  occ. eigenvalues --   -0.49769  -0.49725  -0.49356  -0.49153  -0.48765
 Alpha  occ. eigenvalues --   -0.48339  -0.48053  -0.47782  -0.47507  -0.47348
 Alpha  occ. eigenvalues --   -0.47238  -0.46939  -0.46804  -0.46525  -0.46425
 Alpha  occ. eigenvalues --   -0.45981  -0.45751  -0.45643  -0.45495  -0.45422
 Alpha  occ. eigenvalues --   -0.45055  -0.44945  -0.44723  -0.44606  -0.44551
 Alpha  occ. eigenvalues --   -0.44395  -0.44240  -0.44066  -0.43803  -0.43682
 Alpha  occ. eigenvalues --   -0.43444  -0.43241  -0.43103  -0.42939  -0.42841
 Alpha  occ. eigenvalues --   -0.42587  -0.42482  -0.42398  -0.42182  -0.41897
 Alpha  occ. eigenvalues --   -0.41829  -0.41742  -0.41650  -0.41469  -0.41334
 Alpha  occ. eigenvalues --   -0.41232  -0.41161  -0.40979  -0.40863  -0.40588
 Alpha  occ. eigenvalues --   -0.40549  -0.40421  -0.40365  -0.40315  -0.39947
 Alpha  occ. eigenvalues --   -0.39897  -0.39715  -0.39661  -0.39377  -0.39237
 Alpha  occ. eigenvalues --   -0.39138  -0.39020  -0.38912  -0.38851  -0.38744
 Alpha  occ. eigenvalues --   -0.38598  -0.38505  -0.38311  -0.38168  -0.38050
 Alpha  occ. eigenvalues --   -0.37743  -0.37726  -0.37568  -0.37468  -0.37321
 Alpha  occ. eigenvalues --   -0.36989  -0.36800  -0.36668  -0.36627  -0.36456
 Alpha  occ. eigenvalues --   -0.36332  -0.36245  -0.36101  -0.36001  -0.35517
 Alpha  occ. eigenvalues --   -0.35411  -0.35256  -0.35053  -0.34770  -0.34727
 Alpha  occ. eigenvalues --   -0.34452  -0.34025  -0.33853  -0.33837  -0.33676
 Alpha  occ. eigenvalues --   -0.33423  -0.33272  -0.33020  -0.32878  -0.32644
 Alpha  occ. eigenvalues --   -0.32346  -0.32227  -0.32006  -0.31729  -0.31285
 Alpha  occ. eigenvalues --   -0.31238  -0.30939  -0.30729  -0.30459  -0.30028
 Alpha  occ. eigenvalues --   -0.29660  -0.29368  -0.29063  -0.28826  -0.27897
 Alpha  occ. eigenvalues --   -0.27815  -0.27506  -0.27161  -0.26936  -0.26498
 Alpha  occ. eigenvalues --   -0.26304  -0.25812  -0.25290  -0.25113  -0.25052
 Alpha  occ. eigenvalues --   -0.24518  -0.24110  -0.24099  -0.23831  -0.23456
 Alpha  occ. eigenvalues --   -0.23370  -0.23082  -0.22945  -0.22878  -0.22337
 Alpha  occ. eigenvalues --   -0.22148  -0.22105  -0.21766  -0.21272  -0.21212
 Alpha  occ. eigenvalues --   -0.20748  -0.20507  -0.19973  -0.19788  -0.19334
 Alpha  occ. eigenvalues --   -0.18726  -0.18609  -0.17614
 Alpha virt. eigenvalues --   -0.09976  -0.04448  -0.03953  -0.02693  -0.01407
 Alpha virt. eigenvalues --   -0.01011  -0.00636  -0.00494   0.00075   0.00446
 Alpha virt. eigenvalues --    0.00547   0.00692   0.01373   0.01435   0.01596

 Mulliken charges:
               1
     1  C    0.092233
     2  C    0.004161
     3  O   -0.303942
     4  H    0.047150
     5  H   -0.013403
     6  H    0.040689
     7  N   -0.123130
     8  C    0.086005
     9  C    0.060400
    10  O   -0.281754
    11  C    0.131791
    12  C    0.138932
    13  O   -0.390925
    14  O   -0.477297
    15  H    0.120087
    16  H    0.045178
    17  H    0.004759
    18  H   -0.007678
    19  N   -0.106316
    20  C    0.179740
    21  C    0.066174
    22  O   -0.283033
    23  C   -0.064961
    24  C    0.097284
    25  C   -0.126074
    26  C    0.058387
    27  N    0.090222
    28  H    0.132721
    29  H    0.000411
    30  H    0.036875
    31  H    0.011353
    32  H    0.012799
    33  H    0.039513
    34  H    0.024154
    35  H    0.044825
    36  H    0.087229
    37  H    0.055809
    38  H    0.207703
    39  H    0.193536
    40  H    0.183669
    41  N   -0.143895
    42  C    0.062431
    43  C    0.092456
    44  O   -0.299145
    45  C    0.166628
    46  C    0.043183
    47  O   -0.400450
    48  O   -0.403500
    49  H    0.164996
    50  H    0.013621
    51  H   -0.033979
    52  H    0.012228
    53  N   -0.147297
    54  C    0.220965
    55  C    0.043303
    56  O   -0.288700
    57  H    0.139351
    58  H    0.000694
    59  H    0.030625
    60  N   -0.164355
    61  C    0.140411
    62  C    0.046441
    63  O   -0.305230
    64  C    0.092052
    65  C    0.060406
    66  N   -0.038036
    67  O   -0.359414
    68  H    0.144023
    69  H    0.024718
    70  H    0.077069
    71  H   -0.023544
    72  H    0.137192
    73  H    0.123427
    74  N   -0.145923
    75  C    0.259573
    76  C   -0.012488
    77  O   -0.294692
    78  H    0.138971
    79  H    0.031719
    80  H    0.028432
    81  N   -0.141931
    82  C    0.166454
    83  C    0.092763
    84  O   -0.343956
    85  C    0.140050
    86  C   -0.031912
    87  C   -0.031616
    88  C    0.021964
    89  C   -0.012252
    90  C   -0.026948
    91  C    0.167439
    92  O   -0.202345
    93  H    0.154858
    94  H   -0.017124
    95  H   -0.038036
    96  H   -0.011812
    97  H   -0.036578
    98  H   -0.026252
    99  H   -0.034550
   100  H   -0.037708
   101  H    0.167092
   102  N   -0.117237
   103  C    0.148640
   104  C    0.039758
   105  O   -0.280017
   106  C   -0.075908
   107  C    0.031498
   108  C    0.033890
   109  C    0.024169
   110  H    0.132401
   111  H    0.012965
   112  H   -0.021672
   113  H   -0.018864
   114  H    0.000804
   115  H    0.015276
   116  H    0.032997
   117  H   -0.006516
   118  H    0.002606
   119  H    0.015373
   120  H    0.006858
   121  N   -0.125940
   122  C    0.059080
   123  C    0.114427
   124  O   -0.293479
   125  C    0.305975
   126  O   -0.337863
   127  H    0.148195
   128  H    0.014793
   129  H   -0.038318
   130  H   -0.025982
   131  H    0.168325
   132  N   -0.109099
   133  C    0.078981
   134  C    0.060306
   135  O   -0.256425
   136  C    0.054587
   137  H    0.114034
   138  H    0.023429
   139  H    0.052933
   140  H    0.021947
   141  H   -0.004166
   142  N   -0.117904
   143  C    0.087904
   144  C    0.045218
   145  O   -0.298344
   146  C    0.017072
   147  H    0.114790
   148  H    0.019700
   149  H    0.042181
   150  H    0.015695
   151  H    0.027888
   152  N   -0.140139
   153  C    0.129822
   154  C    0.094803
   155  O   -0.305602
   156  C   -0.006290
   157  C    0.109424
   158  C    0.209019
   159  O   -0.454181
   160  O   -0.405514
   161  H    0.128789
   162  H   -0.051757
   163  H    0.032386
   164  H   -0.012904
   165  H   -0.035298
   166  H   -0.050608
   167  N   -0.153104
   168  C    0.141081
   169  H    0.026488
   170  H    0.023240
   171  H    0.012020
   172  H    0.117866
   173  Ca   1.265069
   174  O   -0.261856
   175  H    0.187795
   176  H    0.175347
 Sum of Mulliken charges =   0.00000

 Dipole moment (field-independent basis, Debye):
    X=             34.9884    Y=             -3.2521    Z=            -10.1850  Tot=             36.5855
 Quadrupole moment (field-independent basis, Debye-Ang):
   XX=           -530.3045   YY=           -521.0587   ZZ=           -497.1754
   XY=            162.5761   XZ=            -36.2455   YZ=             10.5630

 ESP charges:
               1
     1  C   -0.436494
     2  C    0.901806
     3  O   -0.681173
     4  H    0.133018
     5  H    0.074019
     6  H    0.139616
     7  N   -1.004100
     8  C    0.846778
     9  C    0.240256
    10  O   -0.427781
    11  C   -0.390287
    12  C    0.520904
    13  O   -0.598947
    14  O   -0.052745
    15  H    0.400738
    16  H   -0.104152
    17  H    0.080488
    18  H    0.044963
    19  N   -0.215684
    20  C   -0.142553
    21  C    0.633472
    22  O   -0.568111
    23  C    0.250919
    24  C   -0.486247
    25  C    0.231068
    26  C    0.098466
    27  N   -0.563163
    28  H    0.199493
    29  H    0.078748
    30  H   -0.034478
    31  H    0.018959
    32  H    0.139701
    33  H    0.137337
    34  H   -0.022794
    35  H   -0.007324
    36  H    0.081172
    37  H    0.051775
    38  H    0.387242
    39  H    0.383282
    40  H    0.369093
    41  N   -0.388833
    42  C    0.080288
    43  C    0.415254
    44  O   -0.549344
    45  C   -0.136355
    46  C    0.732097
    47  O   -0.745452
    48  O   -0.717434
    49  H    0.192430
    50  H    0.072985
    51  H    0.033960
    52  H    0.056940
    53  N    0.039756
    54  C   -0.107938
    55  C    0.483852
    56  O   -0.571148
    57  H   -0.169864
    58  H    0.076378
    59  H    0.114396
    60  N    0.026807
    61  C   -0.175319
    62  C    0.459240
    63  O   -0.537045
    64  C   -0.116030
    65  C    0.413571
    66  N   -0.756083
    67  O   -0.360794
    68  H   -0.202415
    69  H    0.153641
    70  H    0.115788
    71  H    0.053341
    72  H    0.390105
    73  H    0.364351
    74  N   -0.195205
    75  C   -0.219060
    76  C    0.576938
    77  O   -0.541113
    78  H    0.185243
    79  H    0.136817
    80  H    0.114333
    81  N   -0.595835
    82  C    0.250500
    83  C    0.647758
    84  O   -0.826874
    85  C   -0.102358
    86  C    0.196812
    87  C   -0.326938
    88  C   -0.244560
    89  C   -0.143655
    90  C   -0.252534
    91  C    0.354121
    92  O   -0.577754
    93  H    0.352902
    94  H    0.035031
    95  H    0.031481
    96  H   -0.064510
    97  H    0.147320
    98  H    0.226517
    99  H    0.136649
   100  H    0.131656
   101  H    0.419867
   102  N   -0.679829
   103  C   -0.103115
   104  C    0.748563
   105  O   -0.595745
   106  C    0.116516
   107  C    0.223304
   108  C   -0.233025
   109  C   -0.390009
   110  H    0.344591
   111  H    0.210702
   112  H    0.004872
   113  H   -0.007994
   114  H   -0.031646
   115  H    0.010001
   116  H    0.051387
   117  H    0.075597
   118  H    0.083310
   119  H    0.091582
   120  H    0.095646
   121  N   -0.283046
   122  C   -0.171535
   123  C    0.568576
   124  O   -0.380040
   125  C    0.309505
   126  O   -0.554085
   127  H    0.181379
   128  H    0.066636
   129  H   -0.032798
   130  H   -0.013623
   131  H    0.345384
   132  N   -0.428407
   133  C    0.074008
   134  C    0.556015
   135  O   -0.514765
   136  C   -0.351986
   137  H    0.307511
   138  H    0.080260
   139  H    0.144841
   140  H    0.116129
   141  H    0.073809
   142  N   -0.515308
   143  C    0.300145
   144  C    0.209288
   145  O   -0.541008
   146  C   -0.465811
   147  H    0.322856
   148  H    0.057089
   149  H    0.140377
   150  H    0.125875
   151  H    0.118647
   152  N    0.522602
   153  C   -0.337553
   154  C    0.566523
   155  O   -0.565884
   156  C    0.054790
   157  C   -0.494655
   158  C    0.940644
   159  O   -0.743509
   160  O   -0.774827
   161  H   -0.394247
   162  H    0.069290
   163  H    0.116632
   164  H    0.001916
   165  H    0.084273
   166  H    0.158788
   167  N   -0.158119
   168  C   -0.229836
   169  H    0.101992
   170  H    0.093806
   171  H    0.093920
   172  H    0.177218
   173  Ca   1.455607
   174  O   -0.627568
   175  H    0.357649
   176  H    0.367967
 Sum of ESP charges =   0.00000

 Normal termination of Gaussian 09 at Mon Sep 16 13:32:40 2019.
