 Gaussian 09, Revision D.01,
 Gaussian 09:  ES64L-G09RevD.01 24-Apr-2013

 ----------------------------------------------------------------------
 #maxdisk=50GB #B3LYP/SVP Density=Current scf=(tight) #IOP(5/87=12)Pop=
 (MK,readradii) iop(6/33=2) iop(6/42=6)
 ----------------------------------------------------------------------

 ------------
 SOL molecule
 ------------
 Symbolic Z-matrix:
 Charge =  0 Multiplicity = 1

                         Standard orientation:
 ---------------------------------------------------------------------
 Center     Atomic      Atomic             Coordinates (Angstroms)
 Number     Number       Type             X           Y           Z
 ---------------------------------------------------------------------
      1          6           0        0.883058    4.180745    5.350823
      2          6           0        0.785808    3.373612    4.058276
      3          8           0        1.785238    3.211143    3.371369
      4          1           0        1.866398    4.034190    5.796532
      5          1           0        0.738718    5.238336    5.131009
      6          1           0        0.115451    3.845260    6.048029
      7          7           0       -0.414879    2.866552    3.769414
      8          6           0       -0.798879    2.441449    2.441848
      9          6           0       -1.117545    3.539128    1.434548
     10          8           0       -2.036183    4.336521    1.615844
     11          6           0       -2.061810    1.615621    2.694662
     12          6           0       -2.707072    1.049089    1.438088
     13          8           0       -2.252129    1.288007    0.296402
     14          8           0       -3.630781    0.234061    1.632485
     15          1           0       -1.162969    3.040974    4.421901
     16          1           0       -0.012724    1.880817    1.939005
     17          1           0       -2.728400    2.326594    3.198919
     18          1           0       -1.812190    0.906265    3.472096
     19          7           0       -0.212874    3.792393    0.484797
     20          6           0       -0.100939    5.031856   -0.240050
     21          6           0       -1.316454    5.340789   -1.097537
     22          8           0       -1.398130    6.501664   -1.494147
     23          6           0        1.196601    5.015149   -1.038242
     24          6           0        2.526513    5.296526   -0.340274
     25          6           0        2.673546    6.649593    0.366544
     26          6           0        2.584185    7.858153   -0.560601
     27          7           0        2.824588    9.164995    0.065314
     28          1           0        0.521588    3.114719    0.319191
     29          1           0       -0.130534    5.878954    0.456835
     30          1           0        1.128057    5.696922   -1.888823
     31          1           0        1.291806    4.103411   -1.612584
     32          1           0        3.315399    5.077008   -1.062056
     33          1           0        2.662982    4.515823    0.405433
     34          1           0        3.568221    6.584156    0.979140
     35          1           0        1.812074    6.590254    1.019265
     36          1           0        1.604083    7.861209   -1.037142
     37          1           0        3.321375    7.773574   -1.357342
     38          1           0        3.102639    9.858921   -0.620875
     39          1           0        1.920508    9.478494    0.394034
     40          1           0        3.568321    9.041494    0.732179
     41          7           0       -2.255238    4.420965   -1.357552
     42          6           0       -3.547667    4.489781   -2.005927
     43          6           0       -4.746486    4.233282   -1.087264
     44          8           0       -5.914493    4.375945   -1.437704
     45          6           0       -3.579920    3.696886   -3.306995
     46          6           0       -2.879161    2.346576   -3.292812
     47          8           0       -3.471503    1.528174   -4.026738
     48          8           0       -1.792288    2.093342   -2.713262
     49          1           0       -1.960345    3.476045   -1.144795
     50          1           0       -3.701778    5.534510   -2.245492
     51          1           0       -3.210712    4.236900   -4.177035
     52          1           0       -4.642128    3.515883   -3.508617
     53          7           0       -4.511878    3.663795    0.091058
     54          6           0       -5.495694    3.163577    1.033707
     55          6           0       -6.312022    1.957035    0.606665
     56          8           0       -7.466396    1.847005    1.005932
     57          1           0       -3.544052    3.493646    0.347305
     58          1           0       -6.221006    3.968548    1.176694
     59          1           0       -4.943538    2.815358    1.905754
     60          7           0       -5.810474    1.156691   -0.343545
     61          6           0       -6.544696    0.134209   -1.045505
     62          6           0       -6.652337   -1.153444   -0.227604
     63          8           0       -7.430490   -2.048142   -0.546496
     64          6           0       -5.878974   -0.014656   -2.400959
     65          6           0       -4.620974   -0.871321   -2.486757
     66          7           0       -4.497033   -1.731982   -3.495915
     67          8           0       -3.638488   -0.745657   -1.753456
     68          1           0       -4.828039    1.229646   -0.578914
     69          1           0       -7.587181    0.454989   -1.103167
     70          1           0       -5.743605    0.989155   -2.824444
     71          1           0       -6.557144   -0.512467   -3.089559
     72          1           0       -5.250811   -1.768738   -4.166860
     73          1           0       -3.697325   -2.333855   -3.588739
     74          7           0       -5.947471   -1.195173    0.901432
     75          6           0       -5.960841   -2.222479    1.922884
     76          6           0       -4.651736   -2.962446    2.151998
     77          8           0       -4.635402   -3.783531    3.063948
     78          1           0       -5.286145   -0.443338    1.041044
     79          1           0       -6.793605   -2.929093    1.924213
     80          1           0       -6.080938   -1.583707    2.790090
     81          7           0       -3.613895   -2.691484    1.355716
     82          6           0       -2.401063   -3.495391    1.318667
     83          6           0       -1.105217   -2.716654    1.167829
     84          8           0       -1.119810   -1.779074    0.381680
     85          6           0       -2.439900   -4.640293    0.306299
     86          6           0       -3.775832   -5.301982    0.100496
     87          6           0       -4.753141   -4.816431   -0.780757
     88          6           0       -4.095323   -6.529456    0.693903
     89          6           0       -5.988943   -5.444112   -0.975718
     90          6           0       -5.269585   -7.243957    0.424276
     91          6           0       -6.268882   -6.710054   -0.414803
     92          8           0       -7.516481   -7.240024   -0.595156
     93          1           0       -3.697794   -1.871081    0.783965
     94          1           0       -2.339224   -4.034360    2.262854
     95          1           0       -1.776243   -5.408423    0.681714
     96          1           0       -2.019640   -4.247445   -0.619742
     97          1           0       -4.537323   -3.997336   -1.450835
     98          1           0       -3.420952   -6.993171    1.389814
     99          1           0       -6.657401   -4.983701   -1.678985
    100          1           0       -5.375263   -8.233503    0.851629
    101          1           0       -7.554647   -8.137485   -0.250037
    102          7           0       -0.034679   -3.178358    1.814263
    103          6           0        1.317081   -2.664108    1.718385
    104          6           0        2.173312   -3.671803    0.956073
    105          8           0        2.076574   -4.878973    1.134910
    106          6           0        1.801443   -2.042584    3.024831
    107          6           0        0.855226   -1.009790    3.635576
    108          6           0        3.215366   -1.461249    3.057542
    109          6           0        1.111917   -0.514285    5.060281
    110          1           0       -0.060673   -4.081187    2.266728
    111          1           0        1.332669   -1.821923    1.026517
    112          1           0        1.756885   -2.846279    3.771282
    113          1           0       -0.176188   -1.365068    3.659298
    114          1           0        0.973823   -0.196191    2.930599
    115          1           0        3.521044   -1.372323    4.106091
    116          1           0        3.878497   -2.232452    2.672701
    117          1           0        3.310635   -0.491519    2.576348
    118          1           0        1.990620    0.141750    4.996251
    119          1           0        0.278678    0.002404    5.517824
    120          1           0        1.478436   -1.313860    5.686734
    121          7           0        3.061918   -3.140706    0.113331
    122          6           0        3.986114   -3.923444   -0.681769
    123          6           0        5.467840   -3.723802   -0.382387
    124          8           0        5.763296   -2.916110    0.498317
    125          6           0        3.717763   -3.532080   -2.133465
    126          8           0        3.978368   -2.169183   -2.386441
    127          1           0        3.116355   -2.135329    0.072662
    128          1           0        3.747912   -4.959289   -0.462488
    129          1           0        2.694213   -3.784511   -2.394279
    130          1           0        4.370749   -4.110409   -2.789777
    131          1           0        3.459869   -1.956980   -3.170360
    132          7           0        6.426378   -4.347270   -1.071875
    133          6           0        7.839190   -4.062161   -0.920636
    134          6           0        8.146954   -2.573965   -1.015258
    135          8           0        8.798069   -1.940963   -0.178026
    136          6           0        8.686959   -4.942695   -1.828407
    137          1           0        6.190504   -5.014296   -1.791139
    138          1           0        8.011454   -4.345303    0.119775
    139          1           0        8.381700   -5.978582   -1.663009
    140          1           0        8.643621   -4.644242   -2.880808
    141          1           0        9.694626   -4.765862   -1.451263
    142          7           0        7.626718   -1.952665   -2.079420
    143          6           0        7.886034   -0.573391   -2.408752
    144          6           0        7.242627    0.447614   -1.467754
    145          8           0        7.681086    1.592302   -1.479789
    146          6           0        7.377042   -0.395962   -3.835477
    147          1           0        7.012995   -2.467959   -2.681181
    148          1           0        8.967100   -0.439707   -2.306655
    149          1           0        7.722628    0.562808   -4.232882
    150          1           0        7.752318   -1.163015   -4.507934
    151          1           0        6.287307   -0.432967   -3.865616
    152          7           0        6.160632    0.019540   -0.813126
    153          6           0        5.502336    0.896756    0.126095
    154          6           0        6.048002    0.743453    1.544280
    155          8           0        6.197056    1.758434    2.241414
    156          6           0        3.997222    0.671037    0.050707
    157          6           0        3.316110    1.164822   -1.221441
    158          6           0        1.833974    0.863388   -1.271548
    159          8           0        0.984956    1.476939   -0.584726
    160          8           0        1.438468   -0.189764   -1.823406
    161          1           0        5.766094   -0.878468   -1.039671
    162          1           0        5.735395    1.938084   -0.099781
    163          1           0        3.501735    1.316352    0.776353
    164          1           0        3.725727   -0.369232    0.231621
    165          1           0        3.760953    0.768465   -2.140362
    166          1           0        3.379745    2.246921   -1.357133
    167          7           0        6.449067   -0.432790    2.027807
    168          6           0        7.033738   -0.697109    3.323297
    169          1           0        7.980911   -1.219492    3.193693
    170          1           0        7.207575    0.244885    3.843401
    171          1           0        6.354969   -1.316382    3.909416
    172          1           0        6.287047   -1.262075    1.495138
    173         20           0       -1.069459   -0.020735   -1.577174
    174          8           0       -0.687366   -0.165497   -4.209122
    175          1           0       -0.230930   -0.942028   -4.513036
    176          1           0       -0.952502    0.286994   -5.006026
 ---------------------------------------------------------------------

 SCF Done:  E(RB3LYP) =  -5333.58352987     A.U. after   18 cycles

 The electronic state is 1-A.
 Alpha  occ. eigenvalues -- -145.35551 -19.17872 -19.15518 -19.14692 -19.13814
 Alpha  occ. eigenvalues --  -19.12514 -19.11789 -19.10939 -19.09639 -19.09013
 Alpha  occ. eigenvalues --  -19.08392 -19.07412 -19.07321 -19.07297 -19.06291
 Alpha  occ. eigenvalues --  -19.05996 -19.05124 -19.05103 -19.04248 -19.04093
 Alpha  occ. eigenvalues --  -19.03933 -19.03403 -19.03387 -19.00985 -15.41356
 Alpha  occ. eigenvalues --  -14.58020 -14.40122 -14.37790 -14.37525 -14.36920
 Alpha  occ. eigenvalues --  -14.35021 -14.34852 -14.34552 -14.32215 -14.32042
 Alpha  occ. eigenvalues --  -14.31506 -14.30776 -14.29858 -14.29802 -14.29180
 Alpha  occ. eigenvalues --  -12.54973 -12.54921 -12.54905 -10.33583 -10.32592
 Alpha  occ. eigenvalues --  -10.30534 -10.30312 -10.29757 -10.28630 -10.27777
 Alpha  occ. eigenvalues --  -10.27604 -10.27291 -10.27033 -10.26565 -10.26269
 Alpha  occ. eigenvalues --  -10.25988 -10.25622 -10.25341 -10.25185 -10.24341
 Alpha  occ. eigenvalues --  -10.24100 -10.23965 -10.23777 -10.23180 -10.23097
 Alpha  occ. eigenvalues --  -10.22853 -10.22807 -10.22635 -10.22486 -10.22231
 Alpha  occ. eigenvalues --  -10.22117 -10.21978 -10.21686 -10.20547 -10.20478
 Alpha  occ. eigenvalues --  -10.19932 -10.19722 -10.19688 -10.19497 -10.19465
 Alpha  occ. eigenvalues --  -10.18934 -10.18736 -10.18562 -10.18172 -10.17928
 Alpha  occ. eigenvalues --  -10.17908 -10.17635 -10.17630 -10.17302 -10.17189
 Alpha  occ. eigenvalues --  -10.17128 -10.17026 -10.16884 -10.16742 -10.16041
 Alpha  occ. eigenvalues --  -10.15959 -10.13761  -1.78265  -1.13307  -1.07501
 Alpha  occ. eigenvalues --   -1.06044  -1.05932  -1.05857  -1.05771  -1.05192
 Alpha  occ. eigenvalues --   -1.04550  -1.03735  -1.02926  -1.02531  -1.02236
 Alpha  occ. eigenvalues --   -1.01849  -1.01819  -1.01583  -1.00653  -0.99105
 Alpha  occ. eigenvalues --   -0.98961  -0.98868  -0.98305  -0.97915  -0.97281
 Alpha  occ. eigenvalues --   -0.96710  -0.96666  -0.96472  -0.94676  -0.94466
 Alpha  occ. eigenvalues --   -0.93937  -0.91868  -0.91469  -0.91329  -0.90003
 Alpha  occ. eigenvalues --   -0.89503  -0.89247  -0.88719  -0.88290  -0.88246
 Alpha  occ. eigenvalues --   -0.87935  -0.87081  -0.86846  -0.86038  -0.85452
 Alpha  occ. eigenvalues --   -0.82907  -0.82703  -0.81754  -0.80020  -0.79677
 Alpha  occ. eigenvalues --   -0.79046  -0.77615  -0.77450  -0.76856  -0.75214
 Alpha  occ. eigenvalues --   -0.75014  -0.74484  -0.74058  -0.73054  -0.72281
 Alpha  occ. eigenvalues --   -0.71836  -0.71768  -0.71607  -0.71304  -0.70429
 Alpha  occ. eigenvalues --   -0.69645  -0.69248  -0.68401  -0.68239  -0.68132
 Alpha  occ. eigenvalues --   -0.67729  -0.66167  -0.64937  -0.64627  -0.64052
 Alpha  occ. eigenvalues --   -0.63703  -0.63015  -0.62309  -0.62143  -0.61749
 Alpha  occ. eigenvalues --   -0.61167  -0.60999  -0.60850  -0.59666  -0.59593
 Alpha  occ. eigenvalues --   -0.59146  -0.59014  -0.58408  -0.58158  -0.57326
 Alpha  occ. eigenvalues --   -0.56925  -0.56698  -0.56038  -0.55900  -0.55542
 Alpha  occ. eigenvalues --   -0.55465  -0.55136  -0.55082  -0.54961  -0.54486
 Alpha  occ. eigenvalues --   -0.54407  -0.54115  -0.53213  -0.53110  -0.52926
 Alpha  occ. eigenvalues --   -0.52681  -0.52503  -0.52294  -0.51635  -0.51177
 Alpha  occ. eigenvalues --   -0.51019  -0.50603  -0.50065  -0.49743  -0.49641
 Alpha  occ. eigenvalues --   -0.49110  -0.48693  -0.48422  -0.48350  -0.48110
 Alpha  occ. eigenvalues --   -0.48010  -0.47715  -0.47670  -0.47423  -0.47305
 Alpha  occ. eigenvalues --   -0.47205  -0.47026  -0.46878  -0.46634  -0.46062
 Alpha  occ. eigenvalues --   -0.45829  -0.45508  -0.45117  -0.44971  -0.44858
 Alpha  occ. eigenvalues --   -0.44726  -0.44549  -0.44498  -0.44370  -0.44282
 Alpha  occ. eigenvalues --   -0.44027  -0.43922  -0.43758  -0.43596  -0.43432
 Alpha  occ. eigenvalues --   -0.43276  -0.43156  -0.43030  -0.42846  -0.42645
 Alpha  occ. eigenvalues --   -0.42445  -0.42171  -0.42033  -0.41818  -0.41736
 Alpha  occ. eigenvalues --   -0.41656  -0.41543  -0.41328  -0.41184  -0.41084
 Alpha  occ. eigenvalues --   -0.40928  -0.40794  -0.40654  -0.40537  -0.40336
 Alpha  occ. eigenvalues --   -0.40310  -0.40026  -0.39767  -0.39756  -0.39634
 Alpha  occ. eigenvalues --   -0.39605  -0.39332  -0.39243  -0.39138  -0.39060
 Alpha  occ. eigenvalues --   -0.38960  -0.38825  -0.38801  -0.38723  -0.38689
 Alpha  occ. eigenvalues --   -0.38451  -0.38377  -0.38269  -0.38098  -0.37956
 Alpha  occ. eigenvalues --   -0.37803  -0.37469  -0.37243  -0.37205  -0.36743
 Alpha  occ. eigenvalues --   -0.36684  -0.36576  -0.36421  -0.36242  -0.36159
 Alpha  occ. eigenvalues --   -0.36097  -0.35956  -0.35769  -0.35720  -0.35450
 Alpha  occ. eigenvalues --   -0.34984  -0.34906  -0.34843  -0.34597  -0.34283
 Alpha  occ. eigenvalues --   -0.34094  -0.34031  -0.33666  -0.33505  -0.33431
 Alpha  occ. eigenvalues --   -0.33117  -0.32938  -0.32696  -0.32470  -0.32262
 Alpha  occ. eigenvalues --   -0.32228  -0.31820  -0.31772  -0.31705  -0.31049
 Alpha  occ. eigenvalues --   -0.30983  -0.30910  -0.30894  -0.30562  -0.30426
 Alpha  occ. eigenvalues --   -0.29503  -0.29129  -0.28574  -0.28235  -0.27945
 Alpha  occ. eigenvalues --   -0.27133  -0.27007  -0.26711  -0.26679  -0.26526
 Alpha  occ. eigenvalues --   -0.26264  -0.25627  -0.25447  -0.24880  -0.24191
 Alpha  occ. eigenvalues --   -0.24164  -0.23775  -0.23543  -0.23264  -0.22872
 Alpha  occ. eigenvalues --   -0.22756  -0.22625  -0.22542  -0.22339  -0.22158
 Alpha  occ. eigenvalues --   -0.22047  -0.21640  -0.21459  -0.21327  -0.20343
 Alpha  occ. eigenvalues --   -0.20306  -0.19947  -0.19600  -0.19434  -0.19196
 Alpha  occ. eigenvalues --   -0.18892  -0.18649  -0.17020
 Alpha virt. eigenvalues --   -0.10121  -0.04515  -0.03228  -0.02723  -0.01868
 Alpha virt. eigenvalues --   -0.00761  -0.00107   0.00078   0.00462   0.00760
 Alpha virt. eigenvalues --    0.01012   0.01948   0.02075   0.02211   0.02480

 Mulliken charges:
               1
     1  C    0.045529
     2  C    0.017415
     3  O   -0.284847
     4  H    0.031792
     5  H    0.029334
     6  H    0.004849
     7  N   -0.103360
     8  C    0.131113
     9  C    0.048682
    10  O   -0.312634
    11  C    0.023553
    12  C    0.173246
    13  O   -0.454714
    14  O   -0.378880
    15  H    0.117427
    16  H    0.009333
    17  H    0.002547
    18  H    0.007951
    19  N   -0.116672
    20  C    0.138239
    21  C    0.042337
    22  O   -0.328803
    23  C   -0.001154
    24  C    0.014049
    25  C   -0.005125
    26  C   -0.026782
    27  N    0.091251
    28  H    0.143730
    29  H   -0.016540
    30  H   -0.008664
    31  H    0.021887
    32  H    0.012782
    33  H    0.045019
    34  H    0.034090
    35  H    0.038994
    36  H    0.093098
    37  H    0.058203
    38  H    0.190859
    39  H    0.206265
    40  H    0.196663
    41  N   -0.125342
    42  C    0.141408
    43  C    0.033658
    44  O   -0.284385
    45  C    0.079240
    46  C    0.126851
    47  O   -0.401524
    48  O   -0.481024
    49  H    0.163259
    50  H   -0.005383
    51  H    0.003389
    52  H    0.012895
    53  N   -0.167081
    54  C    0.239484
    55  C    0.022741
    56  O   -0.284104
    57  H    0.145818
    58  H    0.026640
    59  H    0.023667
    60  N   -0.183334
    61  C    0.138854
    62  C    0.026667
    63  O   -0.292949
    64  C    0.082711
    65  C    0.099179
    66  N   -0.027618
    67  O   -0.358163
    68  H    0.146900
    69  H    0.030846
    70  H    0.081491
    71  H   -0.017075
    72  H    0.124834
    73  H    0.116772
    74  N   -0.175110
    75  C    0.246558
    76  C    0.027835
    77  O   -0.300433
    78  H    0.152054
    79  H    0.050026
    80  H    0.018003
    81  N   -0.122198
    82  C    0.112501
    83  C    0.146017
    84  O   -0.355754
    85  C    0.177007
    86  C    0.017423
    87  C   -0.015743
    88  C    0.000331
    89  C    0.000846
    90  C   -0.050551
    91  C    0.171447
    92  O   -0.194721
    93  H    0.139128
    94  H   -0.015780
    95  H   -0.021050
    96  H   -0.035355
    97  H   -0.059456
    98  H   -0.046036
    99  H   -0.023088
   100  H   -0.051491
   101  H    0.172814
   102  N   -0.119020
   103  C    0.127789
   104  C    0.073090
   105  O   -0.272060
   106  C   -0.053711
   107  C   -0.032648
   108  C    0.018953
   109  C    0.040026
   110  H    0.139868
   111  H    0.000232
   112  H   -0.028540
   113  H    0.015928
   114  H    0.019883
   115  H    0.013978
   116  H    0.010542
   117  H    0.045253
   118  H    0.016852
   119  H    0.013709
   120  H   -0.006843
   121  N   -0.136375
   122  C    0.122335
   123  C    0.092568
   124  O   -0.274202
   125  C    0.210698
   126  O   -0.299224
   127  H    0.145588
   128  H    0.038794
   129  H    0.014011
   130  H   -0.032077
   131  H    0.185415
   132  N   -0.133577
   133  C    0.077949
   134  C    0.055560
   135  O   -0.250242
   136  C    0.051299
   137  H    0.114912
   138  H    0.018734
   139  H    0.033057
   140  H    0.018762
   141  H    0.047876
   142  N   -0.151362
   143  C    0.083396
   144  C    0.090144
   145  O   -0.272753
   146  C    0.042500
   147  H    0.097538
   148  H    0.024779
   149  H    0.035347
   150  H    0.007992
   151  H    0.004698
   152  N   -0.146950
   153  C    0.155293
   154  C    0.060860
   155  O   -0.300262
   156  C   -0.005963
   157  C    0.138798
   158  C    0.121509
   159  O   -0.401606
   160  O   -0.477289
   161  H    0.128994
   162  H    0.001304
   163  H    0.046691
   164  H   -0.026936
   165  H   -0.026724
   166  H   -0.024664
   167  N   -0.147947
   168  C    0.127557
   169  H    0.024590
   170  H    0.034961
   171  H    0.007905
   172  H    0.118981
   173  Ca   1.302496
   174  O   -0.266668
   175  H    0.148854
   176  H    0.182183
 Sum of Mulliken charges =   0.00000

 Dipole moment (field-independent basis, Debye):
    X=             28.1268    Y=             10.5952    Z=             -8.3983  Tot=             31.2074
 Quadrupole moment (field-independent basis, Debye-Ang):
   XX=           -719.0642   YY=           -267.4398   ZZ=           -521.7625
   XY=             72.8329   XZ=            -36.0672   YZ=             57.2500

 ESP charges:
               1
     1  C   -0.451132
     2  C    0.723811
     3  O   -0.581564
     4  H    0.128832
     5  H    0.118025
     6  H    0.094373
     7  N   -0.573055
     8  C    0.119610
     9  C    0.560221
    10  O   -0.552689
    11  C   -0.645111
    12  C    1.111879
    13  O   -0.879220
    14  O   -0.745571
    15  H    0.340481
    16  H    0.043658
    17  H    0.168789
    18  H    0.163212
    19  N   -0.292277
    20  C    0.039541
    21  C    0.537131
    22  O   -0.600788
    23  C   -0.033657
    24  C   -0.060587
    25  C   -0.290291
    26  C    0.329755
    27  N   -0.599365
    28  H    0.194524
    29  H    0.048563
    30  H    0.008774
    31  H    0.072052
    32  H    0.038416
    33  H    0.101470
    34  H    0.101801
    35  H    0.090069
    36  H    0.014441
    37  H    0.027782
    38  H    0.377902
    39  H    0.394079
    40  H    0.381698
    41  N   -0.358842
    42  C    0.217052
    43  C    0.307678
    44  O   -0.522160
    45  C   -0.418983
    46  C    0.919913
    47  O   -0.734832
    48  O   -0.798412
    49  H    0.195266
    50  H    0.061562
    51  H    0.108884
    52  H    0.098026
    53  N    0.059119
    54  C   -0.351710
    55  C    0.633778
    56  O   -0.579897
    57  H   -0.017142
    58  H    0.143674
    59  H    0.116017
    60  N   -0.247086
    61  C   -0.169973
    62  C    0.382076
    63  O   -0.532197
    64  C   -0.132486
    65  C    0.779030
    66  N   -0.793224
    67  O   -0.764072
    68  H    0.255530
    69  H    0.161012
    70  H    0.111740
    71  H    0.041361
    72  H    0.362826
    73  H    0.374913
    74  N   -0.015703
    75  C   -0.288379
    76  C    0.929160
    77  O   -0.639607
    78  H    0.138523
    79  H    0.151161
    80  H    0.066119
    81  N   -1.059094
    82  C    0.850430
    83  C    0.504328
    84  O   -0.668951
    85  C   -0.193437
    86  C    0.222593
    87  C   -0.408997
    88  C   -0.259031
    89  C   -0.006443
    90  C   -0.160206
    91  C    0.182127
    92  O   -0.489893
    93  H    0.460031
    94  H   -0.109894
    95  H   -0.003620
    96  H    0.014194
    97  H    0.165818
    98  H    0.151242
    99  H    0.108121
   100  H    0.105665
   101  H    0.396409
   102  N   -0.726232
   103  C    0.279432
   104  C    0.505491
   105  O   -0.544020
   106  C   -0.155740
   107  C    0.394666
   108  C   -0.161373
   109  C   -0.367911
   110  H    0.352708
   111  H    0.027807
   112  H    0.022806
   113  H   -0.060460
   114  H   -0.002293
   115  H    0.084241
   116  H    0.041602
   117  H    0.017944
   118  H    0.071093
   119  H    0.099184
   120  H    0.066870
   121  N   -0.166160
   122  C   -0.044746
   123  C    0.540046
   124  O   -0.460968
   125  C   -0.012871
   126  O   -0.421229
   127  H    0.055602
   128  H    0.100069
   129  H    0.079550
   130  H    0.015647
   131  H    0.380319
   132  N   -0.498299
   133  C    0.273539
   134  C    0.431060
   135  O   -0.528058
   136  C   -0.337242
   137  H    0.292897
   138  H    0.032984
   139  H    0.102476
   140  H    0.081831
   141  H    0.111162
   142  N   -0.310847
   143  C   -0.008647
   144  C    0.428000
   145  O   -0.518317
   146  C   -0.259712
   147  H    0.237951
   148  H    0.119468
   149  H    0.105562
   150  H    0.070701
   151  H    0.064899
   152  N    0.060382
   153  C   -0.297597
   154  C    0.541746
   155  O   -0.562547
   156  C    0.055406
   157  C   -0.118017
   158  C    0.671337
   159  O   -0.680846
   160  O   -0.767378
   161  H   -0.036710
   162  H    0.126183
   163  H    0.066148
   164  H    0.100892
   165  H    0.018662
   166  H    0.031090
   167  N   -0.198662
   168  C   -0.141596
   169  H    0.076097
   170  H    0.094839
   171  H    0.044732
   172  H    0.207323
   173  Ca   1.758676
   174  O   -0.882862
   175  H    0.400782
   176  H    0.452748
 Sum of ESP charges =   0.00000

 Normal termination of Gaussian 09 at Mon Sep 16 21:23:23 2019.
