 Gaussian 09, Revision D.01,
 Gaussian 09:  ES64L-G09RevD.01 24-Apr-2013

 ----------------------------------------------------------------------
 #maxdisk=50GB #B3LYP/SVP Density=Current scf=(tight) #IOP(5/87=12)Pop=
 (MK,readradii) iop(6/33=2) iop(6/42=6)
 ----------------------------------------------------------------------

 ------------
 SOL molecule
 ------------
 Symbolic Z-matrix:
 Charge =  0 Multiplicity = 1

                         Standard orientation:
 ---------------------------------------------------------------------
 Center     Atomic      Atomic             Coordinates (Angstroms)
 Number     Number       Type             X           Y           Z
 ---------------------------------------------------------------------
      1          6           0        2.074733    1.249275    5.986354
      2          6           0        1.712627    1.405911    4.521348
      3          8           0        2.644938    1.590446    3.748662
      4          1           0        2.646781    2.117402    6.312925
      5          1           0        1.163599    1.170176    6.579653
      6          1           0        2.674682    0.348677    6.118667
      7          7           0        0.399542    1.288061    4.268527
      8          6           0       -0.204230    1.587017    2.985295
      9          6           0        0.137891    2.959447    2.426109
     10          8           0       -0.165123    3.991647    3.014026
     11          6           0       -1.712077    1.509495    3.203899
     12          6           0       -2.578845    1.447867    1.954013
     13          8           0       -2.022692    1.496130    0.843488
     14          8           0       -3.821936    1.345358    2.062254
     15          1           0       -0.144084    1.216423    5.108133
     16          1           0        0.015778    0.856193    2.200698
     17          1           0       -2.120791    2.265053    3.877238
     18          1           0       -1.842141    0.537099    3.685593
     19          7           0        0.674730    3.058894    1.206923
     20          6           0        1.275825    4.253304    0.663258
     21          6           0        0.211963    5.156983    0.050346
     22          8           0        0.192116    6.360120    0.296652
     23          6           0        2.340901    3.724358   -0.308971
     24          6           0        3.253097    4.855135   -0.781454
     25          6           0        4.342713    4.234145   -1.646791
     26          6           0        5.201353    5.346719   -2.252692
     27          7           0        6.110272    6.032302   -1.327466
     28          1           0        0.872944    2.173595    0.760205
     29          1           0        1.790854    4.753656    1.481055
     30          1           0        1.821057    3.154935   -1.071939
     31          1           0        2.991642    3.072792    0.269733
     32          1           0        3.632010    5.314461    0.129559
     33          1           0        2.653568    5.673609   -1.163640
     34          1           0        3.903739    3.683002   -2.479944
     35          1           0        5.082869    3.651423   -1.093886
     36          1           0        4.505945    6.053592   -2.714579
     37          1           0        5.891743    4.940619   -2.986344
     38          1           0        5.640722    6.432275   -0.534721
     39          1           0        6.699421    5.318840   -0.914218
     40          1           0        6.572388    6.757944   -1.855569
     41          7           0       -0.712172    4.620535   -0.746711
     42          6           0       -1.786200    5.336230   -1.400349
     43          6           0       -3.036793    5.408153   -0.538639
     44          8           0       -3.934303    6.195971   -0.810519
     45          6           0       -2.163290    4.822405   -2.799344
     46          6           0       -2.433803    3.328827   -2.904459
     47          8           0       -2.588846    2.633174   -1.879360
     48          8           0       -2.365578    2.874144   -4.071296
     49          1           0       -0.633348    3.628345   -0.942788
     50          1           0       -1.475651    6.369463   -1.567045
     51          1           0       -1.438070    5.135965   -3.546229
     52          1           0       -3.034159    5.412794   -3.067724
     53          7           0       -3.127833    4.492818    0.436027
     54          6           0       -4.286012    4.331632    1.302191
     55          6           0       -5.372229    3.478440    0.671876
     56          8           0       -6.532865    3.707476    0.997095
     57          1           0       -2.332569    3.874147    0.456044
     58          1           0       -4.683775    5.320123    1.545852
     59          1           0       -4.065778    3.906166    2.282943
     60          7           0       -4.972721    2.669401   -0.319511
     61          6           0       -5.967392    1.822640   -0.940981
     62          6           0       -6.601102    0.645724   -0.219467
     63          8           0       -7.576673    0.040776   -0.660487
     64          6           0       -5.488956    1.378434   -2.324881
     65          6           0       -4.757949    0.039785   -2.371216
     66          7           0       -5.051011   -0.812210   -3.342566
     67          8           0       -3.964760   -0.262248   -1.474652
     68          1           0       -4.010706    2.596664   -0.602065
     69          1           0       -6.781269    2.526268   -1.112773
     70          1           0       -4.861996    2.111648   -2.823498
     71          1           0       -6.246039    1.430547   -3.108149
     72          1           0       -5.786745   -0.577088   -3.993729
     73          1           0       -4.520301   -1.597813   -3.696507
     74          7           0       -6.085395    0.208986    0.933532
     75          6           0       -6.513774   -0.918087    1.732216
     76          6           0       -5.581963   -2.132261    1.721706
     77          8           0       -5.969337   -3.222306    2.125616
     78          1           0       -5.359775    0.799716    1.303686
     79          1           0       -7.441212   -1.233631    1.249628
     80          1           0       -6.493993   -0.618271    2.779173
     81          7           0       -4.412403   -1.999688    1.097724
     82          6           0       -3.433845   -3.054657    0.883331
     83          6           0       -1.989919   -2.577996    0.922995
     84          8           0       -1.731738   -1.409128    0.634395
     85          6           0       -3.656885   -3.759376   -0.456267
     86          6           0       -5.020066   -4.377533   -0.663441
     87          6           0       -5.863197   -3.702410   -1.563129
     88          6           0       -5.391489   -5.590505   -0.086515
     89          6           0       -7.037198   -4.330862   -1.990994
     90          6           0       -6.636098   -6.139154   -0.418226
     91          6           0       -7.488643   -5.481758   -1.331953
     92          8           0       -8.718465   -6.006957   -1.596348
     93          1           0       -4.197717   -1.140710    0.602783
     94          1           0       -3.569173   -3.810346    1.657617
     95          1           0       -2.900831   -4.512548   -0.667491
     96          1           0       -3.588397   -3.118234   -1.326006
     97          1           0       -5.655986   -2.743769   -2.007956
     98          1           0       -4.785289   -6.026991    0.706329
     99          1           0       -7.640007   -3.779660   -2.710159
    100          1           0       -6.991138   -7.027527    0.058366
    101          1           0       -9.028485   -6.564823   -0.876366
    102          7           0       -1.072344   -3.453444    1.356177
    103          6           0        0.335621   -3.093688    1.389501
    104          6           0        1.127610   -3.941208    0.411460
    105          8           0        1.075526   -5.159335    0.581328
    106          6           0        0.890348   -3.216123    2.803250
    107          6           0        0.109202   -2.447061    3.873088
    108          6           0        2.380443   -2.867663    2.831380
    109          6           0        0.448652   -2.944153    5.277465
    110          1           0       -1.319916   -4.294582    1.850643
    111          1           0        0.495769   -2.067520    1.054788
    112          1           0        0.813827   -4.275943    3.031784
    113          1           0       -0.966368   -2.566681    3.741030
    114          1           0        0.286444   -1.370301    3.833415
    115          1           0        2.525822   -1.809857    3.022196
    116          1           0        2.943060   -3.367972    3.612951
    117          1           0        2.972317   -3.123121    1.945080
    118          1           0        1.515633   -2.855416    5.475648
    119          1           0       -0.148837   -2.444394    6.044242
    120          1           0        0.394388   -4.029647    5.316933
    121          7           0        1.908608   -3.297813   -0.440293
    122          6           0        2.831153   -3.980763   -1.329049
    123          6           0        4.279152   -3.706367   -0.958367
    124          8           0        4.537921   -2.853539   -0.107530
    125          6           0        2.559819   -3.668056   -2.795573
    126          8           0        2.682631   -2.319420   -3.170538
    127          1           0        1.756332   -2.302806   -0.526168
    128          1           0        2.770844   -5.062780   -1.161708
    129          1           0        1.525938   -3.860926   -3.091023
    130          1           0        3.172943   -4.270715   -3.457149
    131          1           0        2.048255   -1.782969   -2.681777
    132          7           0        5.314451   -4.296997   -1.554952
    133          6           0        6.690918   -4.253146   -1.101615
    134          6           0        7.378344   -2.905818   -1.248085
    135          8           0        8.130910   -2.520429   -0.351805
    136          6           0        7.440927   -5.377824   -1.794135
    137          1           0        5.159863   -4.944339   -2.321993
    138          1           0        6.756601   -4.338425   -0.012297
    139          1           0        7.071387   -6.352647   -1.455079
    140          1           0        7.254227   -5.279612   -2.861373
    141          1           0        8.506723   -5.236221   -1.633419
    142          7           0        7.143132   -2.117294   -2.292598
    143          6           0        7.725633   -0.782841   -2.395193
    144          6           0        7.202231    0.087453   -1.262744
    145          8           0        7.819080    1.093611   -0.916851
    146          6           0        7.459821   -0.211126   -3.779349
    147          1           0        6.489231   -2.400040   -3.007138
    148          1           0        8.802433   -0.942471   -2.310224
    149          1           0        7.824783   -0.963897   -4.476728
    150          1           0        6.393644    0.006877   -3.881044
    151          1           0        8.009433    0.727761   -3.830512
    152          7           0        6.019940   -0.154274   -0.698957
    153          6           0        5.408864    0.581501    0.398596
    154          6           0        6.006443    0.239440    1.754654
    155          8           0        6.173232    1.102254    2.611819
    156          6           0        3.907910    0.374152    0.527213
    157          6           0        3.248353    0.393812   -0.857416
    158          6           0        1.767480    0.036178   -0.816042
    159          8           0        1.193767   -0.788661   -1.548021
    160          8           0        0.955542    0.561532   -0.030382
    161          1           0        5.482901   -0.929513   -1.055178
    162          1           0        5.660902    1.637044    0.278577
    163          1           0        3.465434    1.230927    1.024156
    164          1           0        3.730348   -0.514299    1.134195
    165          1           0        3.709725   -0.353678   -1.505024
    166          1           0        3.208738    1.402759   -1.271488
    167          7           0        6.338833   -1.017888    2.043865
    168          6           0        7.173915   -1.467347    3.134107
    169          1           0        8.007565   -0.776430    3.261869
    170          1           0        6.587556   -1.501328    4.051687
    171          1           0        7.558729   -2.462326    2.911594
    172          1           0        6.193128   -1.747885    1.346747
    173         20           0       -1.264961    0.355854   -1.387277
    174          8           0       -1.713134    0.292021   -4.118809
    175          1           0       -1.729644   -0.103392   -4.983145
    176          1           0       -1.824274    1.226588   -4.269913
 ---------------------------------------------------------------------

 SCF Done:  E(RB3LYP) =  -5333.57410102     A.U. after   19 cycles

 The electronic state is 1-A.
 Alpha  occ. eigenvalues -- -145.41267 -19.14845 -19.13944 -19.13907 -19.13231
 Alpha  occ. eigenvalues --  -19.12951 -19.12413 -19.11682 -19.11423 -19.10920
 Alpha  occ. eigenvalues --  -19.10756 -19.10162 -19.08409 -19.07995 -19.07687
 Alpha  occ. eigenvalues --  -19.07537 -19.06780 -19.06178 -19.05110 -19.04659
 Alpha  occ. eigenvalues --  -19.04011 -19.03796 -19.03457 -19.02039 -15.46917
 Alpha  occ. eigenvalues --  -14.58926 -14.40307 -14.39005 -14.36864 -14.36841
 Alpha  occ. eigenvalues --  -14.36779 -14.36614 -14.34301 -14.34144 -14.33525
 Alpha  occ. eigenvalues --  -14.31631 -14.31332 -14.29975 -14.28891 -14.28410
 Alpha  occ. eigenvalues --  -12.60569 -12.60497 -12.60474 -10.35254 -10.32543
 Alpha  occ. eigenvalues --  -10.31396 -10.31105 -10.29973 -10.29872 -10.29777
 Alpha  occ. eigenvalues --  -10.28707 -10.28565 -10.27153 -10.26918 -10.26698
 Alpha  occ. eigenvalues --  -10.26530 -10.26470 -10.26440 -10.26290 -10.26173
 Alpha  occ. eigenvalues --  -10.25056 -10.24812 -10.24177 -10.23962 -10.23280
 Alpha  occ. eigenvalues --  -10.23251 -10.23077 -10.23065 -10.23010 -10.22838
 Alpha  occ. eigenvalues --  -10.22818 -10.22815 -10.22610 -10.22268 -10.22091
 Alpha  occ. eigenvalues --  -10.21940 -10.20877 -10.20668 -10.20460 -10.20377
 Alpha  occ. eigenvalues --  -10.19472 -10.19160 -10.18105 -10.17936 -10.17740
 Alpha  occ. eigenvalues --  -10.17583 -10.17191 -10.17109 -10.17063 -10.16995
 Alpha  occ. eigenvalues --  -10.16865 -10.16752 -10.16678 -10.16654 -10.16556
 Alpha  occ. eigenvalues --  -10.16345 -10.15302  -1.83541  -1.14449  -1.11354
 Alpha  occ. eigenvalues --   -1.10976  -1.10657  -1.08828  -1.07623  -1.05955
 Alpha  occ. eigenvalues --   -1.04414  -1.04049  -1.03382  -1.03247  -1.02573
 Alpha  occ. eigenvalues --   -1.02451  -1.02191  -1.01479  -1.01172  -1.00861
 Alpha  occ. eigenvalues --   -1.00465  -0.99423  -0.98498  -0.97944  -0.97710
 Alpha  occ. eigenvalues --   -0.97345  -0.96669  -0.96252  -0.96132  -0.95504
 Alpha  occ. eigenvalues --   -0.93796  -0.93378  -0.93204  -0.92590  -0.91445
 Alpha  occ. eigenvalues --   -0.91244  -0.90956  -0.90148  -0.89467  -0.89200
 Alpha  occ. eigenvalues --   -0.88565  -0.87774  -0.87249  -0.85957  -0.85149
 Alpha  occ. eigenvalues --   -0.83050  -0.82710  -0.82666  -0.81746  -0.81337
 Alpha  occ. eigenvalues --   -0.80276  -0.78458  -0.77508  -0.76963  -0.75938
 Alpha  occ. eigenvalues --   -0.75834  -0.75250  -0.75110  -0.74033  -0.73884
 Alpha  occ. eigenvalues --   -0.72184  -0.71908  -0.71598  -0.70504  -0.70268
 Alpha  occ. eigenvalues --   -0.69743  -0.69473  -0.69325  -0.68895  -0.68310
 Alpha  occ. eigenvalues --   -0.68008  -0.67129  -0.65752  -0.65137  -0.64785
 Alpha  occ. eigenvalues --   -0.63816  -0.63711  -0.63557  -0.62827  -0.62773
 Alpha  occ. eigenvalues --   -0.62391  -0.61771  -0.61147  -0.61092  -0.60475
 Alpha  occ. eigenvalues --   -0.60210  -0.59944  -0.58493  -0.58022  -0.57796
 Alpha  occ. eigenvalues --   -0.57219  -0.56824  -0.56775  -0.56446  -0.56389
 Alpha  occ. eigenvalues --   -0.55706  -0.55472  -0.55334  -0.55098  -0.54986
 Alpha  occ. eigenvalues --   -0.54753  -0.54240  -0.54111  -0.53834  -0.53324
 Alpha  occ. eigenvalues --   -0.52831  -0.52732  -0.52558  -0.52473  -0.52013
 Alpha  occ. eigenvalues --   -0.51765  -0.51523  -0.51080  -0.50679  -0.50366
 Alpha  occ. eigenvalues --   -0.50318  -0.50078  -0.49863  -0.49450  -0.49102
 Alpha  occ. eigenvalues --   -0.49080  -0.48862  -0.48623  -0.48283  -0.48163
 Alpha  occ. eigenvalues --   -0.47851  -0.47649  -0.47419  -0.47208  -0.46908
 Alpha  occ. eigenvalues --   -0.46810  -0.46713  -0.46387  -0.46275  -0.46100
 Alpha  occ. eigenvalues --   -0.45837  -0.45764  -0.45443  -0.44928  -0.44776
 Alpha  occ. eigenvalues --   -0.44492  -0.44388  -0.44301  -0.44236  -0.44140
 Alpha  occ. eigenvalues --   -0.44031  -0.43909  -0.43856  -0.43550  -0.43410
 Alpha  occ. eigenvalues --   -0.43136  -0.43111  -0.43009  -0.42898  -0.42847
 Alpha  occ. eigenvalues --   -0.42614  -0.42529  -0.42250  -0.42186  -0.42133
 Alpha  occ. eigenvalues --   -0.41886  -0.41823  -0.41732  -0.41467  -0.41344
 Alpha  occ. eigenvalues --   -0.41130  -0.41062  -0.40771  -0.40629  -0.40494
 Alpha  occ. eigenvalues --   -0.40285  -0.39989  -0.39831  -0.39788  -0.39665
 Alpha  occ. eigenvalues --   -0.39475  -0.39433  -0.39345  -0.39174  -0.38955
 Alpha  occ. eigenvalues --   -0.38749  -0.38676  -0.38576  -0.38418  -0.38215
 Alpha  occ. eigenvalues --   -0.38043  -0.37929  -0.37816  -0.37623  -0.37542
 Alpha  occ. eigenvalues --   -0.37286  -0.37228  -0.37069  -0.36798  -0.36654
 Alpha  occ. eigenvalues --   -0.36489  -0.36105  -0.36049  -0.35780  -0.35688
 Alpha  occ. eigenvalues --   -0.35545  -0.35445  -0.35260  -0.35172  -0.34510
 Alpha  occ. eigenvalues --   -0.34436  -0.34193  -0.34079  -0.33741  -0.33662
 Alpha  occ. eigenvalues --   -0.33421  -0.33286  -0.33047  -0.32583  -0.32361
 Alpha  occ. eigenvalues --   -0.32198  -0.32187  -0.32099  -0.31868  -0.31807
 Alpha  occ. eigenvalues --   -0.31524  -0.31485  -0.31349  -0.30587  -0.30526
 Alpha  occ. eigenvalues --   -0.30466  -0.29973  -0.29587  -0.28977  -0.28830
 Alpha  occ. eigenvalues --   -0.28385  -0.28249  -0.27884  -0.27306  -0.27146
 Alpha  occ. eigenvalues --   -0.26701  -0.26593  -0.26361  -0.26249  -0.25807
 Alpha  occ. eigenvalues --   -0.25583  -0.25258  -0.25031  -0.24805  -0.23876
 Alpha  occ. eigenvalues --   -0.23579  -0.23377  -0.23244  -0.23198  -0.23008
 Alpha  occ. eigenvalues --   -0.22545  -0.22344  -0.22226  -0.22079  -0.21779
 Alpha  occ. eigenvalues --   -0.20861  -0.20418  -0.20107  -0.19777  -0.19216
 Alpha  occ. eigenvalues --   -0.18867  -0.18196  -0.18029
 Alpha virt. eigenvalues --   -0.10630  -0.04468  -0.04433  -0.03287  -0.02600
 Alpha virt. eigenvalues --   -0.01720  -0.01250  -0.00534  -0.00239  -0.00045
 Alpha virt. eigenvalues --    0.00070   0.00659   0.00839   0.00863   0.01298

 Mulliken charges:
               1
     1  C    0.055484
     2  C    0.032215
     3  O   -0.283684
     4  H    0.040957
     5  H   -0.020715
     6  H    0.036949
     7  N   -0.121690
     8  C    0.138819
     9  C    0.063010
    10  O   -0.282965
    11  C    0.021348
    12  C    0.167152
    13  O   -0.466215
    14  O   -0.386777
    15  H    0.126123
    16  H    0.015504
    17  H    0.024689
    18  H   -0.001839
    19  N   -0.137143
    20  C    0.137133
    21  C    0.078936
    22  O   -0.267071
    23  C   -0.023353
    24  C   -0.016047
    25  C    0.008720
    26  C    0.018288
    27  N    0.075639
    28  H    0.125073
    29  H   -0.002899
    30  H   -0.000895
    31  H    0.034358
    32  H   -0.010686
    33  H    0.025675
    34  H    0.061463
    35  H    0.039331
    36  H    0.076106
    37  H    0.057825
    38  H    0.184951
    39  H    0.205077
    40  H    0.206335
    41  N   -0.140266
    42  C    0.127288
    43  C    0.046933
    44  O   -0.279268
    45  C    0.070344
    46  C    0.138458
    47  O   -0.439519
    48  O   -0.396783
    49  H    0.102207
    50  H    0.003499
    51  H   -0.009683
    52  H    0.033145
    53  N   -0.171390
    54  C    0.248024
    55  C    0.043773
    56  O   -0.290893
    57  H    0.143868
    58  H    0.014123
    59  H    0.032702
    60  N   -0.162336
    61  C    0.184627
    62  C    0.035210
    63  O   -0.305289
    64  C    0.075104
    65  C    0.096477
    66  N   -0.031429
    67  O   -0.351048
    68  H    0.164210
    69  H    0.018671
    70  H    0.033753
    71  H   -0.021480
    72  H    0.125831
    73  H    0.125489
    74  N   -0.174652
    75  C    0.267386
    76  C    0.003536
    77  O   -0.297809
    78  H    0.141831
    79  H    0.043447
    80  H    0.026002
    81  N   -0.140956
    82  C    0.134980
    83  C    0.134490
    84  O   -0.329977
    85  C    0.141253
    86  C   -0.010765
    87  C   -0.006837
    88  C    0.039775
    89  C   -0.031280
    90  C   -0.035187
    91  C    0.179692
    92  O   -0.213622
    93  H    0.162797
    94  H   -0.008104
    95  H   -0.016295
    96  H   -0.050641
    97  H   -0.061788
    98  H   -0.034179
    99  H   -0.028782
   100  H   -0.056899
   101  H    0.177416
   102  N   -0.122477
   103  C    0.144780
   104  C    0.054817
   105  O   -0.292253
   106  C   -0.087485
   107  C    0.026372
   108  C    0.015010
   109  C    0.035859
   110  H    0.136023
   111  H    0.002213
   112  H   -0.015394
   113  H   -0.006962
   114  H    0.014463
   115  H    0.032206
   116  H   -0.002904
   117  H    0.018975
   118  H   -0.007437
   119  H    0.019163
   120  H   -0.011075
   121  N   -0.114221
   122  C    0.109959
   123  C    0.085819
   124  O   -0.295937
   125  C    0.248108
   126  O   -0.353584
   127  H    0.131191
   128  H    0.029239
   129  H    0.005312
   130  H   -0.019953
   131  H    0.173167
   132  N   -0.115609
   133  C    0.092882
   134  C    0.036550
   135  O   -0.273987
   136  C    0.043068
   137  H    0.115490
   138  H    0.026045
   139  H    0.047032
   140  H    0.002483
   141  H    0.043454
   142  N   -0.152083
   143  C    0.095772
   144  C    0.065052
   145  O   -0.304039
   146  C    0.052946
   147  H    0.110782
   148  H    0.027750
   149  H    0.032020
   150  H    0.013025
   151  H    0.027554
   152  N   -0.142909
   153  C    0.141393
   154  C    0.044298
   155  O   -0.270791
   156  C    0.005572
   157  C    0.121443
   158  C    0.096832
   159  O   -0.440539
   160  O   -0.387250
   161  H    0.141396
   162  H   -0.027782
   163  H    0.053385
   164  H    0.031200
   165  H   -0.033981
   166  H   -0.015793
   167  N   -0.162816
   168  C    0.142164
   169  H    0.024297
   170  H    0.022033
   171  H    0.012892
   172  H    0.128608
   173  Ca   1.328121
   174  O   -0.327235
   175  H    0.171427
   176  H    0.150484
 Sum of Mulliken charges =   0.00000

 Dipole moment (field-independent basis, Debye):
    X=             35.9926    Y=             -0.5792    Z=            -18.2784  Tot=             40.3720
 Quadrupole moment (field-independent basis, Debye-Ang):
   XX=           -584.6420   YY=           -496.4372   ZZ=           -519.6988
   XY=            141.3657   XZ=            -59.0159   YZ=            -36.5568

 ESP charges:
               1
     1  C   -0.409709
     2  C    0.780686
     3  O   -0.577918
     4  H    0.124169
     5  H    0.062941
     6  H    0.112999
     7  N   -0.757628
     8  C    0.333488
     9  C    0.390947
    10  O   -0.535411
    11  C   -0.225005
    12  C    0.716781
    13  O   -0.686379
    14  O   -0.675883
    15  H    0.378623
    16  H   -0.023046
    17  H    0.072985
    18  H    0.032848
    19  N    0.150724
    20  C   -0.515892
    21  C    0.680360
    22  O   -0.552897
    23  C   -0.058696
    24  C    0.021072
    25  C   -0.225872
    26  C    0.079801
    27  N   -0.415241
    28  H   -0.128871
    29  H    0.197219
    30  H    0.059407
    31  H    0.135765
    32  H    0.028576
    33  H    0.063794
    34  H    0.114025
    35  H    0.133560
    36  H    0.069910
    37  H    0.063789
    38  H    0.331454
    39  H    0.358534
    40  H    0.354196
    41  N   -0.478231
    42  C    0.027524
    43  C    0.482258
    44  O   -0.552512
    45  C   -0.190708
    46  C    0.670181
    47  O   -0.660580
    48  O   -0.669882
    49  H    0.253692
    50  H    0.090720
    51  H    0.053503
    52  H    0.099529
    53  N   -0.190613
    54  C   -0.255329
    55  C    0.631582
    56  O   -0.581928
    57  H    0.185318
    58  H    0.127877
    59  H    0.131447
    60  N   -0.257233
    61  C   -0.221169
    62  C    0.381532
    63  O   -0.545648
    64  C   -0.086310
    65  C    0.598496
    66  N   -0.757380
    67  O   -0.576420
    68  H    0.182963
    69  H    0.165670
    70  H    0.133155
    71  H    0.043584
    72  H    0.347065
    73  H    0.362104
    74  N    0.113845
    75  C   -0.533484
    76  C    0.748407
    77  O   -0.575060
    78  H    0.135553
    79  H    0.197740
    80  H    0.157461
    81  N   -0.539670
    82  C    0.119909
    83  C    0.518408
    84  O   -0.543513
    85  C   -0.080526
    86  C   -0.036248
    87  C   -0.053973
    88  C   -0.059607
    89  C   -0.399393
    90  C   -0.398936
    91  C    0.532401
    92  O   -0.589054
    93  H    0.339994
    94  H    0.047486
    95  H    0.029630
    96  H    0.009260
    97  H    0.163523
    98  H    0.131229
    99  H    0.176953
   100  H    0.152053
   101  H    0.409104
   102  N   -0.509110
   103  C   -0.132363
   104  C    0.521459
   105  O   -0.546838
   106  C    0.268818
   107  C    0.036109
   108  C   -0.311316
   109  C   -0.420525
   110  H    0.325313
   111  H    0.065398
   112  H   -0.004013
   113  H    0.034715
   114  H    0.076424
   115  H    0.052989
   116  H    0.081926
   117  H    0.071598
   118  H    0.095472
   119  H    0.113710
   120  H    0.089523
   121  N   -0.024103
   122  C   -0.568324
   123  C    0.936590
   124  O   -0.639904
   125  C    0.333498
   126  O   -0.671365
   127  H    0.204874
   128  H    0.149053
   129  H    0.020056
   130  H    0.011058
   131  H    0.440946
   132  N   -0.652140
   133  C    0.193536
   134  C    0.541472
   135  O   -0.550124
   136  C   -0.417570
   137  H    0.337557
   138  H    0.072402
   139  H    0.139825
   140  H    0.094979
   141  H    0.139830
   142  N   -0.468989
   143  C    0.207208
   144  C    0.311556
   145  O   -0.534434
   146  C   -0.360955
   147  H    0.288548
   148  H    0.083541
   149  H    0.108736
   150  H    0.091122
   151  H    0.114825
   152  N    0.031838
   153  C   -0.391224
   154  C    0.705674
   155  O   -0.573944
   156  C    0.091891
   157  C   -0.316243
   158  C    0.798888
   159  O   -0.825362
   160  O   -0.536372
   161  H    0.111229
   162  H    0.085904
   163  H    0.070670
   164  H   -0.005720
   165  H    0.057524
   166  H    0.053253
   167  N   -0.263837
   168  C   -0.207051
   169  H    0.102116
   170  H    0.088152
   171  H    0.088190
   172  H    0.259497
   173  Ca   1.614356
   174  O   -0.887275
   175  H    0.448732
   176  H    0.378558
 Sum of ESP charges =   0.00000

 Normal termination of Gaussian 09 at Mon Sep 16 19:07:27 2019.
