 Gaussian 09, Revision D.01,
 Gaussian 09:  ES64L-G09RevD.01 24-Apr-2013

 ----------------------------------------------------------------------
 #maxdisk=50GB #B3LYP/SVP Density=Current scf=(tight) #IOP(5/87=12)Pop=
 (MK,readradii) iop(6/33=2) iop(6/42=6)
 ----------------------------------------------------------------------

 ------------
 SOL molecule
 ------------
 Symbolic Z-matrix:
 Charge =  0 Multiplicity = 1

                         Standard orientation:
 ---------------------------------------------------------------------
 Center     Atomic      Atomic             Coordinates (Angstroms)
 Number     Number       Type             X           Y           Z
 ---------------------------------------------------------------------
      1          6           0        1.381206    2.782913    6.078008
      2          6           0        1.226841    2.306500    4.639327
      3          8           0        2.162993    2.406855    3.840735
      4          1           0        2.302120    3.357628    6.173013
      5          1           0        0.532467    3.411310    6.346635
      6          1           0        1.421393    1.920708    6.744613
      7          7           0        0.019316    1.912415    4.228010
      8          6           0       -0.356599    1.935028    2.825236
      9          6           0       -0.305380    3.349487    2.279269
     10          8           0       -0.956453    4.224579    2.863066
     11          6           0       -1.686843    1.204381    2.671923
     12          6           0       -2.273757    1.205877    1.263332
     13          8           0       -1.748076    1.885067    0.359086
     14          8           0       -3.164960    0.407815    0.901457
     15          1           0       -0.781580    1.792704    4.832357
     16          1           0        0.324349    1.426915    2.146389
     17          1           0       -2.439969    1.661368    3.317961
     18          1           0       -1.419335    0.210832    3.022067
     19          7           0        0.399206    3.642502    1.186977
     20          6           0        0.655178    4.941266    0.596394
     21          6           0       -0.556634    5.525698   -0.117225
     22          8           0       -0.885640    6.685560    0.128079
     23          6           0        1.911897    4.762290   -0.243561
     24          6           0        2.205156    6.029557   -1.040827
     25          6           0        3.635576    6.152593   -1.541787
     26          6           0        3.817648    7.357631   -2.463813
     27          7           0        3.051658    7.184953   -3.706891
     28          1           0        0.728166    2.841473    0.672158
     29          1           0        0.890260    5.638204    1.401076
     30          1           0        1.816080    3.918271   -0.924260
     31          1           0        2.795092    4.640474    0.395914
     32          1           0        2.030365    6.885629   -0.387076
     33          1           0        1.567617    6.108315   -1.925045
     34          1           0        3.982525    5.219896   -1.973300
     35          1           0        4.214132    6.300884   -0.631687
     36          1           0        4.885339    7.472968   -2.672937
     37          1           0        3.516966    8.205584   -1.855729
     38          1           0        2.056265    7.295597   -3.588350
     39          1           0        3.364295    7.813412   -4.435243
     40          1           0        3.189666    6.282063   -4.145804
     41          7           0       -1.125332    4.700656   -0.991117
     42          6           0       -2.319796    5.111597   -1.704197
     43          6           0       -3.590698    4.940942   -0.885611
     44          8           0       -4.630558    5.539251   -1.182288
     45          6           0       -2.454094    4.326354   -3.007523
     46          6           0       -2.255902    2.822400   -2.931753
     47          8           0       -1.148104    2.353484   -3.248298
     48          8           0       -3.216259    2.142078   -2.502012
     49          1           0       -0.642388    3.817085   -1.118669
     50          1           0       -2.233719    6.168467   -1.958592
     51          1           0       -1.676308    4.632515   -3.708319
     52          1           0       -3.376435    4.587638   -3.506940
     53          7           0       -3.513060    4.214359    0.225177
     54          6           0       -4.598167    3.933501    1.151169
     55          6           0       -5.701863    3.023841    0.650394
     56          8           0       -6.824331    3.166723    1.135421
     57          1           0       -2.634846    3.726046    0.312877
     58          1           0       -5.015105    4.888793    1.460652
     59          1           0       -4.226305    3.577090    2.107667
     60          7           0       -5.508207    2.232956   -0.408566
     61          6           0       -6.532102    1.253491   -0.713997
     62          6           0       -6.800423    0.169287    0.319205
     63          8           0       -7.986249   -0.052302    0.557561
     64          6           0       -6.220200    0.722402   -2.105709
     65          6           0       -5.296753   -0.480975   -2.094410
     66          7           0       -5.675808   -1.533335   -2.833163
     67          8           0       -4.201928   -0.561163   -1.546477
     68          1           0       -4.670931    2.331091   -0.964839
     69          1           0       -7.492372    1.775158   -0.782877
     70          1           0       -5.852726    1.499449   -2.783913
     71          1           0       -7.134670    0.316079   -2.530029
     72          1           0       -6.527443   -1.539493   -3.379221
     73          1           0       -4.948214   -2.205993   -3.059517
     74          7           0       -5.800541   -0.295591    1.065880
     75          6           0       -5.955553   -1.303913    2.097315
     76          6           0       -4.988433   -2.455207    1.882605
     77          8           0       -5.314548   -3.526087    2.385164
     78          1           0       -4.902439    0.160999    1.127839
     79          1           0       -7.009671   -1.588925    2.172177
     80          1           0       -5.647985   -0.793060    3.011170
     81          7           0       -3.959004   -2.350285    1.036279
     82          6           0       -2.994510   -3.436917    0.939941
     83          6           0       -1.563380   -2.941283    0.865677
     84          8           0       -1.396978   -1.981678    0.113700
     85          6           0       -3.249020   -4.151250   -0.386201
     86          6           0       -4.548513   -4.867714   -0.674988
     87          6           0       -5.748577   -4.183715   -0.886861
     88          6           0       -4.475454   -6.260450   -0.847758
     89          6           0       -6.852008   -4.874411   -1.418537
     90          6           0       -5.618666   -6.929529   -1.304267
     91          6           0       -6.828822   -6.265226   -1.594307
     92          8           0       -7.994126   -6.883175   -1.950828
     93          1           0       -3.682451   -1.417355    0.769333
     94          1           0       -3.138762   -4.138186    1.755731
     95          1           0       -2.442484   -4.866343   -0.485404
     96          1           0       -3.007793   -3.433267   -1.170109
     97          1           0       -5.795682   -3.111282   -0.750589
     98          1           0       -3.560289   -6.788584   -0.666522
     99          1           0       -7.701826   -4.261658   -1.698614
    100          1           0       -5.550890   -7.986165   -1.474052
    101          1           0       -7.895595   -7.828289   -2.093838
    102          7           0       -0.582319   -3.551240    1.532364
    103          6           0        0.819488   -3.212744    1.544977
    104          6           0        1.725246   -4.166693    0.776743
    105          8           0        1.657138   -5.397852    0.754189
    106          6           0        1.231340   -3.042519    3.007099
    107          6           0        0.829507   -1.628868    3.425571
    108          6           0        2.659584   -3.424205    3.385828
    109          6           0        1.229327   -1.181040    4.832090
    110          1           0       -0.879539   -4.402627    1.995074
    111          1           0        0.986262   -2.256912    1.051042
    112          1           0        0.677154   -3.720752    3.652528
    113          1           0       -0.240145   -1.489527    3.297004
    114          1           0        1.326357   -0.935734    2.742853
    115          1           0        2.810258   -3.306675    4.456147
    116          1           0        2.813670   -4.465578    3.124295
    117          1           0        3.353736   -2.812475    2.804330
    118          1           0        0.572068   -0.404003    5.222633
    119          1           0        1.277108   -2.050378    5.481218
    120          1           0        2.222903   -0.722189    4.774971
    121          7           0        2.540156   -3.610712   -0.114608
    122          6           0        3.540225   -4.200481   -0.984226
    123          6           0        4.933716   -3.626956   -0.749595
    124          8           0        5.104468   -2.600306   -0.097725
    125          6           0        3.116758   -3.906060   -2.422486
    126          8           0        3.489047   -2.578538   -2.695039
    127          1           0        2.401882   -2.647845   -0.399507
    128          1           0        3.565255   -5.276501   -0.822505
    129          1           0        2.042435   -4.002379   -2.557593
    130          1           0        3.669268   -4.546959   -3.117815
    131          1           0        2.929847   -1.957378   -2.201119
    132          7           0        5.946868   -4.189434   -1.419252
    133          6           0        7.355927   -3.870757   -1.339896
    134          6           0        7.661654   -2.380720   -1.335215
    135          8           0        8.412324   -1.950220   -0.472392
    136          6           0        7.952955   -4.605592   -2.535418
    137          1           0        5.676231   -5.061671   -1.845114
    138          1           0        7.789814   -4.331836   -0.448185
    139          1           0        8.944112   -4.172582   -2.668868
    140          1           0        8.047325   -5.670001   -2.352313
    141          1           0        7.499130   -4.557213   -3.526530
    142          7           0        7.137014   -1.571455   -2.262007
    143          6           0        7.351804   -0.141525   -2.350694
    144          6           0        6.915480    0.602674   -1.087448
    145          8           0        7.523344    1.609810   -0.748072
    146          6           0        6.713564    0.406302   -3.622950
    147          1           0        6.472810   -1.921273   -2.943960
    148          1           0        8.402441    0.062150   -2.519748
    149          1           0        6.947559    1.457432   -3.806724
    150          1           0        6.843066   -0.217539   -4.508473
    151          1           0        5.638341    0.243878   -3.485423
    152          7           0        5.880670    0.160202   -0.367735
    153          6           0        5.419209    0.735810    0.872155
    154          6           0        6.187388    0.064513    2.005231
    155          8           0        6.409784    0.599639    3.083878
    156          6           0        3.909203    0.516048    1.000946
    157          6           0        2.971245    1.022966   -0.081583
    158          6           0        1.882534    0.126102   -0.656599
    159          8           0        0.653403    0.300966   -0.544533
    160          8           0        2.288669   -0.950777   -1.164324
    161          1           0        5.351077   -0.627077   -0.734238
    162          1           0        5.599853    1.804863    0.753439
    163          1           0        3.593296    1.001494    1.930056
    164          1           0        3.791791   -0.558069    1.165226
    165          1           0        3.575675    1.327457   -0.934841
    166          1           0        2.452295    1.924338    0.255936
    167          7           0        6.657850   -1.168710    1.794691
    168          6           0        7.368338   -1.876051    2.830439
    169          1           0        8.431995   -1.890774    2.595121
    170          1           0        7.214944   -1.373583    3.785451
    171          1           0        6.996921   -2.898874    2.893566
    172          1           0        6.357813   -1.632476    0.952432
    173         20           0       -1.738614    0.162664   -1.467369
    174          8           0       -0.063461   -1.701481   -2.342256
    175          1           0        0.750500   -1.507995   -1.883312
    176          1           0        0.007567   -2.628899   -2.583401
 ---------------------------------------------------------------------

 SCF Done:  E(RB3LYP) =  -5333.58084602     A.U. after   19 cycles

 The electronic state is 1-A.
 Alpha  occ. eigenvalues -- -145.37414 -19.15530 -19.13456 -19.12391 -19.11603
 Alpha  occ. eigenvalues --  -19.11498 -19.11418 -19.10189 -19.09704 -19.09682
 Alpha  occ. eigenvalues --  -19.09645 -19.09139 -19.08672 -19.08219 -19.07959
 Alpha  occ. eigenvalues --  -19.07781 -19.07656 -19.07376 -19.07050 -19.06103
 Alpha  occ. eigenvalues --  -19.05705 -19.05502 -19.04907 -19.04854 -15.43145
 Alpha  occ. eigenvalues --  -14.59641 -14.38114 -14.37678 -14.36452 -14.36380
 Alpha  occ. eigenvalues --  -14.35657 -14.35002 -14.34544 -14.34442 -14.33218
 Alpha  occ. eigenvalues --  -14.32296 -14.31577 -14.30847 -14.30584 -14.30264
 Alpha  occ. eigenvalues --  -12.56759 -12.56743 -12.56690 -10.35952 -10.30769
 Alpha  occ. eigenvalues --  -10.30114 -10.29970 -10.29347 -10.29105 -10.28379
 Alpha  occ. eigenvalues --  -10.28015 -10.27942 -10.27743 -10.27677 -10.26750
 Alpha  occ. eigenvalues --  -10.26608 -10.25996 -10.25855 -10.25192 -10.25022
 Alpha  occ. eigenvalues --  -10.25001 -10.24775 -10.24336 -10.24329 -10.24184
 Alpha  occ. eigenvalues --  -10.23967 -10.23931 -10.23899 -10.23859 -10.23695
 Alpha  occ. eigenvalues --  -10.23190 -10.22648 -10.22566 -10.22372 -10.21258
 Alpha  occ. eigenvalues --  -10.21181 -10.20621 -10.20206 -10.19406 -10.19402
 Alpha  occ. eigenvalues --  -10.19367 -10.19310 -10.19295 -10.18824 -10.18261
 Alpha  occ. eigenvalues --  -10.18235 -10.18137 -10.18037 -10.17947 -10.17910
 Alpha  occ. eigenvalues --  -10.17887 -10.17590 -10.17481 -10.17410 -10.17353
 Alpha  occ. eigenvalues --  -10.17144 -10.16763  -1.79978  -1.14753  -1.07917
 Alpha  occ. eigenvalues --   -1.07538  -1.07299  -1.05856  -1.04901  -1.04641
 Alpha  occ. eigenvalues --   -1.04308  -1.03876  -1.03810  -1.03651  -1.02664
 Alpha  occ. eigenvalues --   -1.02489  -1.01813  -1.01706  -1.01127  -1.00786
 Alpha  occ. eigenvalues --   -1.00344  -0.99771  -0.99705  -0.99036  -0.98541
 Alpha  occ. eigenvalues --   -0.98470  -0.97672  -0.95270  -0.94299  -0.94108
 Alpha  occ. eigenvalues --   -0.93154  -0.93097  -0.92795  -0.92078  -0.91606
 Alpha  occ. eigenvalues --   -0.91387  -0.91182  -0.90885  -0.90618  -0.89999
 Alpha  occ. eigenvalues --   -0.89777  -0.88529  -0.87889  -0.87267  -0.86558
 Alpha  occ. eigenvalues --   -0.83620  -0.83396  -0.82143  -0.81054  -0.78717
 Alpha  occ. eigenvalues --   -0.78632  -0.77833  -0.77564  -0.77452  -0.76822
 Alpha  occ. eigenvalues --   -0.76649  -0.76175  -0.74041  -0.73991  -0.73013
 Alpha  occ. eigenvalues --   -0.72414  -0.72320  -0.72036  -0.72004  -0.70783
 Alpha  occ. eigenvalues --   -0.70476  -0.69848  -0.69481  -0.68584  -0.66875
 Alpha  occ. eigenvalues --   -0.66291  -0.66222  -0.65876  -0.65734  -0.65210
 Alpha  occ. eigenvalues --   -0.64393  -0.63682  -0.63650  -0.63315  -0.62370
 Alpha  occ. eigenvalues --   -0.61376  -0.60762  -0.60746  -0.60419  -0.59980
 Alpha  occ. eigenvalues --   -0.59580  -0.59123  -0.58976  -0.58135  -0.58055
 Alpha  occ. eigenvalues --   -0.57546  -0.57040  -0.56775  -0.56413  -0.56077
 Alpha  occ. eigenvalues --   -0.56034  -0.55373  -0.55310  -0.55195  -0.54449
 Alpha  occ. eigenvalues --   -0.54423  -0.54106  -0.54031  -0.53822  -0.53740
 Alpha  occ. eigenvalues --   -0.53540  -0.53212  -0.53059  -0.52280  -0.52152
 Alpha  occ. eigenvalues --   -0.51753  -0.51193  -0.50862  -0.50472  -0.50238
 Alpha  occ. eigenvalues --   -0.50021  -0.49695  -0.49563  -0.49472  -0.49012
 Alpha  occ. eigenvalues --   -0.48883  -0.48445  -0.48396  -0.48051  -0.47919
 Alpha  occ. eigenvalues --   -0.47803  -0.47411  -0.47244  -0.46873  -0.46805
 Alpha  occ. eigenvalues --   -0.46529  -0.46515  -0.46046  -0.45943  -0.45661
 Alpha  occ. eigenvalues --   -0.45594  -0.45363  -0.45127  -0.44896  -0.44685
 Alpha  occ. eigenvalues --   -0.44565  -0.44407  -0.44063  -0.44017  -0.43877
 Alpha  occ. eigenvalues --   -0.43855  -0.43715  -0.43606  -0.43477  -0.43340
 Alpha  occ. eigenvalues --   -0.43251  -0.43049  -0.42814  -0.42615  -0.42586
 Alpha  occ. eigenvalues --   -0.42270  -0.42100  -0.42024  -0.41839  -0.41780
 Alpha  occ. eigenvalues --   -0.41744  -0.41367  -0.41324  -0.41145  -0.41025
 Alpha  occ. eigenvalues --   -0.40898  -0.40794  -0.40615  -0.40590  -0.40498
 Alpha  occ. eigenvalues --   -0.40370  -0.40329  -0.40199  -0.40065  -0.40020
 Alpha  occ. eigenvalues --   -0.39823  -0.39770  -0.39308  -0.39141  -0.39039
 Alpha  occ. eigenvalues --   -0.39007  -0.38842  -0.38736  -0.38715  -0.38494
 Alpha  occ. eigenvalues --   -0.38478  -0.38267  -0.38059  -0.37889  -0.37771
 Alpha  occ. eigenvalues --   -0.37734  -0.37661  -0.37171  -0.37111  -0.36991
 Alpha  occ. eigenvalues --   -0.36883  -0.36563  -0.36434  -0.36257  -0.36009
 Alpha  occ. eigenvalues --   -0.35485  -0.35405  -0.35336  -0.35180  -0.35160
 Alpha  occ. eigenvalues --   -0.34599  -0.34597  -0.34406  -0.34233  -0.34178
 Alpha  occ. eigenvalues --   -0.34010  -0.33871  -0.33543  -0.33505  -0.33154
 Alpha  occ. eigenvalues --   -0.32925  -0.32740  -0.32647  -0.32249  -0.32005
 Alpha  occ. eigenvalues --   -0.31531  -0.31326  -0.31115  -0.29277  -0.29068
 Alpha  occ. eigenvalues --   -0.28987  -0.28500  -0.28060  -0.28011  -0.27875
 Alpha  occ. eigenvalues --   -0.27757  -0.27551  -0.27397  -0.27283  -0.27007
 Alpha  occ. eigenvalues --   -0.26696  -0.26337  -0.26054  -0.25937  -0.25494
 Alpha  occ. eigenvalues --   -0.25224  -0.25016  -0.24911  -0.24756  -0.24443
 Alpha  occ. eigenvalues --   -0.24429  -0.24341  -0.24072  -0.23810  -0.23678
 Alpha  occ. eigenvalues --   -0.23457  -0.23415  -0.23009  -0.22918  -0.22735
 Alpha  occ. eigenvalues --   -0.22682  -0.21390  -0.21063  -0.20909  -0.20654
 Alpha  occ. eigenvalues --   -0.20461  -0.20221  -0.20148
 Alpha virt. eigenvalues --   -0.11044  -0.05301  -0.05050  -0.01929  -0.01181
 Alpha virt. eigenvalues --   -0.00769  -0.00341  -0.00214   0.00496   0.00543
 Alpha virt. eigenvalues --    0.01006   0.01343   0.01393   0.01636   0.01757

 Mulliken charges:
               1
     1  C    0.055772
     2  C    0.051467
     3  O   -0.283604
     4  H    0.036973
     5  H    0.029828
     6  H    0.028770
     7  N   -0.114423
     8  C    0.097097
     9  C    0.054024
    10  O   -0.300825
    11  C    0.079887
    12  C    0.150988
    13  O   -0.455929
    14  O   -0.399379
    15  H    0.120066
    16  H   -0.008487
    17  H    0.021271
    18  H    0.021513
    19  N   -0.105654
    20  C    0.114822
    21  C    0.062640
    22  O   -0.260291
    23  C    0.017445
    24  C   -0.034112
    25  C   -0.033746
    26  C    0.052073
    27  N    0.075734
    28  H    0.141209
    29  H    0.011244
    30  H    0.019099
    31  H    0.046600
    32  H    0.031531
    33  H   -0.032148
    34  H    0.036407
    35  H    0.056511
    36  H    0.079796
    37  H    0.084325
    38  H    0.201431
    39  H    0.189206
    40  H    0.190622
    41  N   -0.164507
    42  C    0.130227
    43  C    0.047650
    44  O   -0.286506
    45  C    0.135326
    46  C    0.067846
    47  O   -0.394383
    48  O   -0.407305
    49  H    0.139776
    50  H    0.004881
    51  H   -0.047081
    52  H    0.013715
    53  N   -0.168301
    54  C    0.250181
    55  C    0.021817
    56  O   -0.287587
    57  H    0.161707
    58  H    0.021829
    59  H    0.016987
    60  N   -0.153206
    61  C    0.162241
    62  C    0.021393
    63  O   -0.264488
    64  C    0.087952
    65  C    0.065088
    66  N   -0.053739
    67  O   -0.352092
    68  H    0.150259
    69  H    0.023054
    70  H    0.060898
    71  H   -0.012906
    72  H    0.126640
    73  H    0.135933
    74  N   -0.189744
    75  C    0.243009
    76  C    0.010254
    77  O   -0.295904
    78  H    0.148313
    79  H    0.047910
    80  H    0.010586
    81  N   -0.144158
    82  C    0.141511
    83  C    0.092935
    84  O   -0.349597
    85  C    0.134205
    86  C   -0.007158
    87  C    0.027077
    88  C    0.005849
    89  C   -0.052027
    90  C   -0.055495
    91  C    0.207123
    92  O   -0.200169
    93  H    0.151330
    94  H   -0.011693
    95  H   -0.038418
    96  H   -0.023847
    97  H   -0.012864
    98  H   -0.040762
    99  H   -0.028426
   100  H   -0.056580
   101  H    0.173387
   102  N   -0.088605
   103  C    0.202371
   104  C    0.033795
   105  O   -0.288097
   106  C   -0.156913
   107  C   -0.045053
   108  C    0.106451
   109  C    0.050865
   110  H    0.133550
   111  H    0.008028
   112  H   -0.019936
   113  H    0.011530
   114  H    0.016663
   115  H    0.015268
   116  H    0.014428
   117  H    0.014705
   118  H   -0.014996
   119  H    0.002775
   120  H    0.030632
   121  N   -0.142708
   122  C    0.049390
   123  C    0.127689
   124  O   -0.290119
   125  C    0.261140
   126  O   -0.354216
   127  H    0.127741
   128  H    0.014466
   129  H   -0.012014
   130  H   -0.014253
   131  H    0.171940
   132  N   -0.115872
   133  C    0.142381
   134  C    0.040563
   135  O   -0.243681
   136  C   -0.002566
   137  H    0.114758
   138  H    0.020913
   139  H    0.031281
   140  H    0.022660
   141  H    0.017933
   142  N   -0.125432
   143  C    0.103787
   144  C    0.065695
   145  O   -0.280678
   146  C    0.027691
   147  H    0.117098
   148  H    0.010878
   149  H    0.029634
   150  H    0.011745
   151  H    0.004242
   152  N   -0.177190
   153  C    0.128907
   154  C    0.068867
   155  O   -0.283246
   156  C   -0.008859
   157  C    0.125332
   158  C    0.176324
   159  O   -0.417058
   160  O   -0.449493
   161  H    0.138750
   162  H   -0.007276
   163  H    0.046359
   164  H    0.016938
   165  H   -0.012094
   166  H   -0.039475
   167  N   -0.158850
   168  C    0.136604
   169  H    0.020610
   170  H    0.033160
   171  H   -0.006830
   172  H    0.130046
   173  Ca   1.318866
   174  O   -0.322422
   175  H    0.144053
   176  H    0.168738
 Sum of Mulliken charges =   0.00000

 Dipole moment (field-independent basis, Debye):
    X=             19.8129    Y=              7.5074    Z=            -23.0136  Tot=             31.2816
 Quadrupole moment (field-independent basis, Debye-Ang):
   XX=           -712.1715   YY=           -397.7620   ZZ=           -481.3691
   XY=            104.8833   XZ=            -54.7742   YZ=            -80.3251

 ESP charges:
               1
     1  C   -0.430636
     2  C    0.831526
     3  O   -0.626387
     4  H    0.132139
     5  H    0.106713
     6  H    0.105306
     7  N   -0.676656
     8  C    0.155424
     9  C    0.637171
    10  O   -0.564394
    11  C   -0.435567
    12  C    0.756136
    13  O   -0.708149
    14  O   -0.561898
    15  H    0.349851
    16  H   -0.020512
    17  H    0.132939
    18  H    0.140652
    19  N   -0.386554
    20  C    0.065582
    21  C    0.265731
    22  O   -0.496866
    23  C   -0.266719
    24  C    0.192890
    25  C   -0.136085
    26  C    0.039599
    27  N   -0.406048
    28  H    0.257324
    29  H    0.107763
    30  H    0.088360
    31  H    0.121120
    32  H    0.019613
    33  H   -0.065147
    34  H    0.051913
    35  H    0.084764
    36  H    0.087715
    37  H    0.090834
    38  H    0.351634
    39  H    0.336674
    40  H    0.354459
    41  N   -0.075203
    42  C   -0.156131
    43  C    0.486085
    44  O   -0.541689
    45  C   -0.166147
    46  C    0.807056
    47  O   -0.734592
    48  O   -0.785356
    49  H    0.152981
    50  H    0.126821
    51  H    0.009250
    52  H    0.081570
    53  N   -0.124348
    54  C   -0.297264
    55  C    0.512739
    56  O   -0.532013
    57  H    0.210342
    58  H    0.152344
    59  H    0.122425
    60  N   -0.322116
    61  C    0.208622
    62  C    0.355357
    63  O   -0.535153
    64  C   -0.430232
    65  C    0.789794
    66  N   -0.857125
    67  O   -0.608617
    68  H    0.236025
    69  H    0.067640
    70  H    0.167808
    71  H    0.097007
    72  H    0.383987
    73  H    0.357787
    74  N   -0.002268
    75  C   -0.232134
    76  C    0.527833
    77  O   -0.543081
    78  H    0.080434
    79  H    0.139228
    80  H    0.090342
    81  N   -0.472196
    82  C    0.408557
    83  C    0.429757
    84  O   -0.464520
    85  C   -0.021049
    86  C   -0.184909
    87  C    0.145593
    88  C   -0.035137
    89  C   -0.346154
    90  C   -0.355276
    91  C    0.392136
    92  O   -0.527632
    93  H    0.171533
    94  H   -0.020520
    95  H    0.005895
    96  H   -0.004243
    97  H    0.083623
    98  H    0.114090
    99  H    0.155717
   100  H    0.137268
   101  H    0.398438
   102  N   -0.678520
   103  C    0.087080
   104  C    0.690089
   105  O   -0.597095
   106  C   -0.004148
   107  C    0.239569
   108  C   -0.154099
   109  C   -0.400174
   110  H    0.344458
   111  H    0.042235
   112  H    0.034723
   113  H   -0.026288
   114  H    0.033271
   115  H    0.073303
   116  H    0.035081
   117  H   -0.012061
   118  H    0.087252
   119  H    0.081903
   120  H    0.098691
   121  N   -0.273742
   122  C   -0.154067
   123  C    0.492561
   124  O   -0.406263
   125  C    0.172589
   126  O   -0.562980
   127  H    0.156359
   128  H    0.093451
   129  H    0.008352
   130  H    0.036412
   131  H    0.316982
   132  N   -0.430352
   133  C    0.157693
   134  C    0.646136
   135  O   -0.566649
   136  C   -0.391462
   137  H    0.287555
   138  H    0.067881
   139  H    0.099664
   140  H    0.119630
   141  H    0.110030
   142  N   -0.603977
   143  C    0.327168
   144  C    0.257810
   145  O   -0.528891
   146  C   -0.405197
   147  H    0.310355
   148  H    0.051941
   149  H    0.126104
   150  H    0.109210
   151  H    0.082131
   152  N    0.087189
   153  C   -0.293333
   154  C    0.544361
   155  O   -0.569061
   156  C    0.071890
   157  C    0.008239
   158  C    0.656171
   159  O   -0.656996
   160  O   -0.580001
   161  H    0.096658
   162  H    0.122956
   163  H    0.084207
   164  H   -0.066854
   165  H   -0.033962
   166  H   -0.049960
   167  N   -0.047550
   168  C   -0.258729
   169  H    0.092098
   170  H    0.115150
   171  H    0.070050
   172  H    0.104030
   173  Ca   1.543416
   174  O   -0.862214
   175  H    0.391467
   176  H    0.435881
 Sum of ESP charges =   0.00000

 Normal termination of Gaussian 09 at Mon Sep 16 21:41:42 2019.
