 Gaussian 09, Revision D.01,
 Gaussian 09:  ES64L-G09RevD.01 24-Apr-2013

 ----------------------------------------------------------------------
 #maxdisk=50GB #B3LYP/SVP Density=Current scf=(tight) #IOP(5/87=12)Pop=
 (MK,readradii) iop(6/33=2) iop(6/42=6)
 ----------------------------------------------------------------------

 ------------
 SOL molecule
 ------------
 Symbolic Z-matrix:
 Charge =  0 Multiplicity = 1

                         Standard orientation:
 ---------------------------------------------------------------------
 Center     Atomic      Atomic             Coordinates (Angstroms)
 Number     Number       Type             X           Y           Z
 ---------------------------------------------------------------------
      1          6           0        2.160610    3.076408    5.120333
      2          6           0        1.541473    2.760073    3.763534
      3          8           0        2.260723    2.409817    2.826464
      4          1           0        3.242487    2.955024    5.062946
      5          1           0        1.925356    4.104032    5.397058
      6          1           0        1.758464    2.395757    5.871097
      7          7           0        0.219144    2.789070    3.592639
      8          6           0       -0.491621    2.622721    2.343583
      9          6           0       -0.671285    3.966634    1.652773
     10          8           0       -1.381828    4.898669    2.018478
     11          6           0       -1.716341    1.748441    2.614687
     12          6           0       -2.519421    1.410206    1.371401
     13          8           0       -1.910353    1.474976    0.272428
     14          8           0       -3.687010    0.996950    1.506885
     15          1           0       -0.248997    3.177598    4.401335
     16          1           0        0.114906    2.007964    1.689061
     17          1           0       -2.373008    2.348947    3.255686
     18          1           0       -1.514656    0.840724    3.185716
     19          7           0        0.186651    4.133358    0.640227
     20          6           0        0.448532    5.436048    0.049111
     21          6           0       -0.725097    5.777477   -0.861834
     22          8           0       -1.147711    6.937212   -0.908863
     23          6           0        1.815910    5.541295   -0.606098
     24          6           0        2.401533    6.954501   -0.628376
     25          6           0        2.959241    7.368942    0.727095
     26          6           0        3.487468    8.800531    0.802120
     27          7           0        4.030624    9.131982    2.121522
     28          1           0        0.804864    3.342010    0.631289
     29          1           0        0.376736    6.114117    0.902263
     30          1           0        1.720107    5.222508   -1.652710
     31          1           0        2.506417    4.885034   -0.078916
     32          1           0        1.564546    7.637673   -0.825680
     33          1           0        3.229446    7.066858   -1.331821
     34          1           0        3.743826    6.661074    0.996816
     35          1           0        2.091069    7.201834    1.356502
     36          1           0        2.698788    9.528658    0.637150
     37          1           0        4.303245    8.913345    0.091429
     38          1           0        3.357384    8.861739    2.831955
     39          1           0        4.883412    8.640318    2.332045
     40          1           0        4.244093   10.121140    2.143801
     41          7           0       -1.159204    4.756771   -1.593073
     42          6           0       -2.259744    4.839828   -2.532335
     43          6           0       -3.644702    4.662838   -1.921216
     44          8           0       -4.692623    5.065976   -2.431549
     45          6           0       -2.089058    3.949542   -3.757756
     46          6           0       -1.538367    2.562928   -3.428908
     47          8           0       -2.263492    1.682603   -2.918494
     48          8           0       -0.316095    2.354922   -3.570973
     49          1           0       -0.716147    3.867504   -1.411401
     50          1           0       -2.216260    5.895976   -2.800775
     51          1           0       -1.401161    4.510494   -4.377782
     52          1           0       -3.018369    3.850350   -4.319042
     53          7           0       -3.694759    4.153714   -0.696313
     54          6           0       -4.954475    4.072804    0.014722
     55          6           0       -5.896248    2.932953   -0.342914
     56          8           0       -7.097279    2.927513   -0.084274
     57          1           0       -2.828335    4.080431   -0.178589
     58          1           0       -5.382586    5.071279   -0.019471
     59          1           0       -4.757726    3.937303    1.084408
     60          7           0       -5.397152    1.799519   -0.836402
     61          6           0       -6.202068    0.700602   -1.337893
     62          6           0       -6.722693   -0.276841   -0.292832
     63          8           0       -7.608752   -1.077993   -0.570601
     64          6           0       -5.543065    0.110808   -2.575616
     65          6           0       -4.399894   -0.875761   -2.358261
     66          7           0       -4.396332   -2.038343   -3.017268
     67          8           0       -3.426954   -0.572130   -1.663929
     68          1           0       -4.403011    1.802304   -0.983285
     69          1           0       -7.131544    1.064759   -1.773051
     70          1           0       -5.152825    0.871793   -3.264103
     71          1           0       -6.354039   -0.458863   -3.005959
     72          1           0       -5.178353   -2.291257   -3.600344
     73          1           0       -3.610624   -2.666162   -2.910001
     74          7           0       -6.165031   -0.234435    0.915024
     75          6           0       -6.235903   -1.219494    1.979137
     76          6           0       -5.076880   -2.149271    2.270136
     77          8           0       -5.321585   -3.123462    2.991228
     78          1           0       -5.511689    0.534232    0.973275
     79          1           0       -7.133701   -1.770192    1.695428
     80          1           0       -6.332321   -0.671848    2.920512
     81          7           0       -3.928788   -2.073566    1.593931
     82          6           0       -3.035773   -3.195086    1.379881
     83          6           0       -1.614154   -2.709148    1.113302
     84          8           0       -1.374029   -1.591533    0.657368
     85          6           0       -3.481733   -4.053005    0.195696
     86          6           0       -4.850493   -4.681943    0.254293
     87          6           0       -5.943220   -3.921821   -0.199868
     88          6           0       -4.956419   -6.019066    0.651007
     89          6           0       -7.195735   -4.540723   -0.183537
     90          6           0       -6.222370   -6.611312    0.622517
     91          6           0       -7.366572   -5.854174    0.295798
     92          8           0       -8.611684   -6.403109    0.469768
     93          1           0       -3.558192   -1.173511    1.319780
     94          1           0       -2.947898   -3.955263    2.150860
     95          1           0       -2.746341   -4.842205    0.045816
     96          1           0       -3.437188   -3.392570   -0.665373
     97          1           0       -5.809246   -2.946056   -0.652564
     98          1           0       -4.115183   -6.649496    0.858324
     99          1           0       -8.118821   -4.008527   -0.397965
    100          1           0       -6.354371   -7.648507    0.888604
    101          1           0       -8.539514   -7.280400    0.845604
    102          7           0       -0.676097   -3.564761    1.516880
    103          6           0        0.735496   -3.231377    1.588718
    104          6           0        1.445774   -4.100302    0.551137
    105          8           0        1.169125   -5.304213    0.538329
    106          6           0        1.234776   -3.505138    2.998638
    107          6           0        0.758764   -2.482531    4.026153
    108          6           0        2.756291   -3.614126    3.106872
    109          6           0        1.134531   -1.001270    3.904230
    110          1           0       -1.046827   -4.463690    1.805128
    111          1           0        0.908794   -2.192976    1.308737
    112          1           0        0.817440   -4.478600    3.249838
    113          1           0        0.956497   -2.760636    5.057588
    114          1           0       -0.327527   -2.390020    4.029763
    115          1           0        3.244986   -2.660612    2.900504
    116          1           0        3.009159   -3.921060    4.126945
    117          1           0        3.247319   -4.334739    2.459717
    118          1           0        2.186123   -0.927808    3.610363
    119          1           0        0.702445   -0.503686    3.044572
    120          1           0        0.930078   -0.430052    4.807229
    121          7           0        2.304072   -3.445138   -0.237966
    122          6           0        3.059340   -4.076360   -1.308307
    123          6           0        4.560294   -3.873809   -1.104570
    124          8           0        4.963343   -3.360679   -0.063489
    125          6           0        2.643340   -3.478314   -2.644041
    126          8           0        1.293603   -3.868653   -2.781682
    127          1           0        2.439665   -2.469620   -0.030891
    128          1           0        2.775952   -5.102494   -1.505641
    129          1           0        3.307716   -3.772397   -3.444241
    130          1           0        2.598267   -2.388547   -2.582591
    131          1           0        1.196545   -4.266362   -3.651744
    132          7           0        5.389891   -4.371910   -2.028780
    133          6           0        6.823655   -4.483637   -1.828937
    134          6           0        7.547312   -3.174621   -1.550730
    135          8           0        8.180671   -2.995428   -0.516251
    136          6           0        7.265499   -5.091401   -3.159499
    137          1           0        4.970659   -4.745665   -2.868335
    138          1           0        7.055897   -5.178570   -1.033430
    139          1           0        8.350757   -5.159966   -3.228878
    140          1           0        6.731219   -6.023342   -3.317078
    141          1           0        6.976662   -4.384843   -3.942282
    142          7           0        7.270797   -2.127211   -2.346450
    143          6           0        7.813867   -0.794133   -2.178284
    144          6           0        7.343234   -0.235943   -0.844032
    145          8           0        8.011321    0.613194   -0.267121
    146          6           0        7.419505    0.093840   -3.352543
    147          1           0        6.536478   -2.270074   -3.030091
    148          1           0        8.900179   -0.812516   -2.053034
    149          1           0        7.934167    1.046459   -3.395432
    150          1           0        7.631634   -0.439264   -4.279798
    151          1           0        6.405097    0.444870   -3.163190
    152          7           0        6.098725   -0.596598   -0.493568
    153          6           0        5.554400    0.031684    0.692506
    154          6           0        6.166079   -0.541539    1.964263
    155          8           0        6.502101    0.177872    2.896002
    156          6           0        4.041275   -0.185343    0.660065
    157          6           0        3.452378    0.578607   -0.527404
    158          6           0        1.941641    0.400497   -0.506181
    159          8           0        1.261183    1.446362   -0.652958
    160          8           0        1.420288   -0.732841   -0.477287
    161          1           0        5.465906   -1.124128   -1.081660
    162          1           0        5.748771    1.096210    0.765333
    163          1           0        3.528354    0.127544    1.566605
    164          1           0        3.730587   -1.199315    0.440219
    165          1           0        3.825688    0.204181   -1.480003
    166          1           0        3.710459    1.629600   -0.410329
    167          7           0        6.564371   -1.819019    1.892781
    168          6           0        7.164771   -2.562859    2.979437
    169          1           0        8.240648   -2.633736    2.819351
    170          1           0        6.971205   -2.049942    3.921250
    171          1           0        6.736250   -3.564582    3.015715
    172          1           0        6.235435   -2.331492    1.086449
    173         20           0       -0.895002    0.000489   -1.480013
    174          8           0        0.484050   -0.215790   -3.762301
    175          1           0        0.367949    0.697758   -4.020854
    176          1           0        1.099951   -0.568634   -4.402197
 ---------------------------------------------------------------------

 SCF Done:  E(RB3LYP) =  -5333.56638989     A.U. after   21 cycles

 The electronic state is 1-A.
 Alpha  occ. eigenvalues -- -145.35253 -19.15462 -19.13492 -19.13369 -19.13188
 Alpha  occ. eigenvalues --  -19.11078 -19.10193 -19.09708 -19.08760 -19.08634
 Alpha  occ. eigenvalues --  -19.08544 -19.08346 -19.07997 -19.07364 -19.05625
 Alpha  occ. eigenvalues --  -19.05072 -19.04920 -19.04876 -19.04722 -19.04293
 Alpha  occ. eigenvalues --  -19.04058 -19.03640 -19.03426 -19.02874 -15.41012
 Alpha  occ. eigenvalues --  -14.59569 -14.39687 -14.37291 -14.35683 -14.35071
 Alpha  occ. eigenvalues --  -14.34613 -14.34512 -14.34397 -14.33898 -14.33564
 Alpha  occ. eigenvalues --  -14.30981 -14.30868 -14.30294 -14.29400 -14.29168
 Alpha  occ. eigenvalues --  -12.54635 -12.54592 -12.54558 -10.35908 -10.31539
 Alpha  occ. eigenvalues --  -10.29897 -10.28584 -10.28097 -10.27449 -10.27411
 Alpha  occ. eigenvalues --  -10.27051 -10.27009 -10.26841 -10.26637 -10.26368
 Alpha  occ. eigenvalues --  -10.26142 -10.25238 -10.24872 -10.24073 -10.23967
 Alpha  occ. eigenvalues --  -10.23834 -10.23728 -10.23555 -10.23511 -10.23428
 Alpha  occ. eigenvalues --  -10.23321 -10.23030 -10.22835 -10.22470 -10.22018
 Alpha  occ. eigenvalues --  -10.21845 -10.21186 -10.21155 -10.20769 -10.20767
 Alpha  occ. eigenvalues --  -10.20628 -10.20276 -10.19769 -10.19521 -10.18435
 Alpha  occ. eigenvalues --  -10.18341 -10.18177 -10.18156 -10.18155 -10.16929
 Alpha  occ. eigenvalues --  -10.16821 -10.16473 -10.16403 -10.16401 -10.16262
 Alpha  occ. eigenvalues --  -10.16150 -10.15956 -10.15953 -10.15682 -10.15470
 Alpha  occ. eigenvalues --  -10.15384 -10.15323  -1.77849  -1.14980  -1.06623
 Alpha  occ. eigenvalues --   -1.05563  -1.05315  -1.05202  -1.04311  -1.03991
 Alpha  occ. eigenvalues --   -1.02843  -1.02316  -1.02298  -1.01944  -1.01571
 Alpha  occ. eigenvalues --   -1.01231  -1.01050  -1.00668  -1.00648  -0.99778
 Alpha  occ. eigenvalues --   -0.99009  -0.98438  -0.98111  -0.97993  -0.97627
 Alpha  occ. eigenvalues --   -0.97557  -0.96837  -0.96607  -0.93843  -0.92103
 Alpha  occ. eigenvalues --   -0.92071  -0.91683  -0.91179  -0.90951  -0.90889
 Alpha  occ. eigenvalues --   -0.90346  -0.90024  -0.89243  -0.88633  -0.88357
 Alpha  occ. eigenvalues --   -0.87824  -0.87354  -0.86792  -0.86701  -0.85452
 Alpha  occ. eigenvalues --   -0.82671  -0.82336  -0.81971  -0.80325  -0.78823
 Alpha  occ. eigenvalues --   -0.77995  -0.77486  -0.76942  -0.76326  -0.76034
 Alpha  occ. eigenvalues --   -0.75828  -0.75394  -0.74006  -0.73329  -0.72657
 Alpha  occ. eigenvalues --   -0.71831  -0.71428  -0.70804  -0.70792  -0.69690
 Alpha  occ. eigenvalues --   -0.69222  -0.69071  -0.68935  -0.68005  -0.67127
 Alpha  occ. eigenvalues --   -0.66251  -0.65303  -0.64799  -0.64106  -0.63887
 Alpha  occ. eigenvalues --   -0.63583  -0.62707  -0.62471  -0.61651  -0.61397
 Alpha  occ. eigenvalues --   -0.61168  -0.60116  -0.59324  -0.59152  -0.58681
 Alpha  occ. eigenvalues --   -0.58446  -0.58388  -0.58143  -0.57946  -0.57670
 Alpha  occ. eigenvalues --   -0.56943  -0.56246  -0.55968  -0.55551  -0.55358
 Alpha  occ. eigenvalues --   -0.55102  -0.54674  -0.54252  -0.54004  -0.53707
 Alpha  occ. eigenvalues --   -0.53677  -0.53414  -0.53191  -0.53131  -0.52808
 Alpha  occ. eigenvalues --   -0.52345  -0.52009  -0.51975  -0.51738  -0.51548
 Alpha  occ. eigenvalues --   -0.50848  -0.50712  -0.50580  -0.49777  -0.49479
 Alpha  occ. eigenvalues --   -0.48947  -0.48885  -0.48604  -0.48460  -0.48001
 Alpha  occ. eigenvalues --   -0.47669  -0.47340  -0.46992  -0.46905  -0.46867
 Alpha  occ. eigenvalues --   -0.46621  -0.46370  -0.46129  -0.45990  -0.45836
 Alpha  occ. eigenvalues --   -0.45314  -0.45251  -0.45141  -0.45032  -0.44815
 Alpha  occ. eigenvalues --   -0.44632  -0.44315  -0.44209  -0.44097  -0.43981
 Alpha  occ. eigenvalues --   -0.43858  -0.43660  -0.43542  -0.43046  -0.42701
 Alpha  occ. eigenvalues --   -0.42579  -0.42429  -0.42336  -0.42224  -0.42069
 Alpha  occ. eigenvalues --   -0.41883  -0.41845  -0.41736  -0.41552  -0.41277
 Alpha  occ. eigenvalues --   -0.41167  -0.40942  -0.40926  -0.40880  -0.40845
 Alpha  occ. eigenvalues --   -0.40528  -0.40393  -0.40350  -0.40273  -0.40134
 Alpha  occ. eigenvalues --   -0.39791  -0.39738  -0.39680  -0.39530  -0.39332
 Alpha  occ. eigenvalues --   -0.39303  -0.39031  -0.38863  -0.38715  -0.38662
 Alpha  occ. eigenvalues --   -0.38611  -0.38478  -0.38273  -0.38189  -0.38070
 Alpha  occ. eigenvalues --   -0.37933  -0.37873  -0.37750  -0.37624  -0.37553
 Alpha  occ. eigenvalues --   -0.37353  -0.37260  -0.37156  -0.37034  -0.36738
 Alpha  occ. eigenvalues --   -0.36640  -0.36480  -0.36294  -0.36064  -0.36026
 Alpha  occ. eigenvalues --   -0.35923  -0.35856  -0.35683  -0.35602  -0.35100
 Alpha  occ. eigenvalues --   -0.35053  -0.34832  -0.34782  -0.34419  -0.34206
 Alpha  occ. eigenvalues --   -0.33703  -0.33559  -0.33455  -0.32896  -0.32770
 Alpha  occ. eigenvalues --   -0.32750  -0.32703  -0.32496  -0.31906  -0.31520
 Alpha  occ. eigenvalues --   -0.31321  -0.31179  -0.31108  -0.31033  -0.31023
 Alpha  occ. eigenvalues --   -0.30720  -0.30587  -0.30230  -0.29980  -0.29458
 Alpha  occ. eigenvalues --   -0.28599  -0.28273  -0.27603  -0.26890  -0.26702
 Alpha  occ. eigenvalues --   -0.26545  -0.26385  -0.26097  -0.25912  -0.25724
 Alpha  occ. eigenvalues --   -0.25438  -0.25159  -0.24544  -0.24199  -0.23921
 Alpha  occ. eigenvalues --   -0.23790  -0.23716  -0.23577  -0.23349  -0.23124
 Alpha  occ. eigenvalues --   -0.22874  -0.22817  -0.22624  -0.22577  -0.22026
 Alpha  occ. eigenvalues --   -0.21853  -0.21808  -0.21339  -0.21020  -0.20639
 Alpha  occ. eigenvalues --   -0.20594  -0.20264  -0.19635  -0.19428  -0.19386
 Alpha  occ. eigenvalues --   -0.19076  -0.18859  -0.18557
 Alpha virt. eigenvalues --   -0.11461  -0.05478  -0.04891  -0.02180  -0.01620
 Alpha virt. eigenvalues --   -0.01137  -0.00903   0.00318   0.01206   0.01638
 Alpha virt. eigenvalues --    0.01663   0.01862   0.01907   0.02146   0.02403

 Mulliken charges:
               1
     1  C    0.055223
     2  C   -0.006157
     3  O   -0.296618
     4  H    0.040509
     5  H    0.005024
     6  H    0.037091
     7  N   -0.121085
     8  C    0.122761
     9  C    0.050410
    10  O   -0.289940
    11  C    0.059739
    12  C    0.167617
    13  O   -0.476288
    14  O   -0.381625
    15  H    0.105811
    16  H    0.032862
    17  H   -0.009511
    18  H    0.017504
    19  N   -0.154134
    20  C    0.081831
    21  C    0.049909
    22  O   -0.283486
    23  C    0.125075
    24  C    0.014519
    25  C   -0.084303
    26  C    0.049153
    27  N    0.080123
    28  H    0.149254
    29  H   -0.008534
    30  H    0.034723
    31  H    0.017224
    32  H    0.031193
    33  H    0.008247
    34  H    0.026815
    35  H    0.028204
    36  H    0.075451
    37  H    0.068044
    38  H    0.200228
    39  H    0.189326
    40  H    0.196168
    41  N   -0.159316
    42  C    0.108865
    43  C    0.058566
    44  O   -0.287356
    45  C    0.178858
    46  C    0.060049
    47  O   -0.413350
    48  O   -0.408377
    49  H    0.161157
    50  H    0.013925
    51  H   -0.025238
    52  H    0.015648
    53  N   -0.160511
    54  C    0.224087
    55  C    0.043940
    56  O   -0.297551
    57  H    0.143387
    58  H    0.015037
    59  H    0.027843
    60  N   -0.153886
    61  C    0.175080
    62  C    0.016494
    63  O   -0.300266
    64  C    0.074006
    65  C    0.062622
    66  N   -0.043719
    67  O   -0.333820
    68  H    0.147858
    69  H    0.023059
    70  H    0.064566
    71  H   -0.009140
    72  H    0.130165
    73  H    0.129391
    74  N   -0.138732
    75  C    0.215363
    76  C    0.060446
    77  O   -0.304619
    78  H    0.144135
    79  H    0.051430
    80  H    0.020128
    81  N   -0.141680
    82  C    0.123992
    83  C    0.091109
    84  O   -0.336775
    85  C    0.128120
    86  C    0.012598
    87  C    0.019924
    88  C    0.013576
    89  C   -0.030827
    90  C   -0.056922
    91  C    0.163071
    92  O   -0.197164
    93  H    0.157393
    94  H   -0.017743
    95  H   -0.022333
    96  H   -0.057196
    97  H   -0.023091
    98  H   -0.047097
    99  H   -0.003770
   100  H   -0.060005
   101  H    0.167084
   102  N   -0.103151
   103  C    0.141083
   104  C    0.063382
   105  O   -0.301825
   106  C   -0.047253
   107  C    0.037127
   108  C    0.062432
   109  C   -0.026397
   110  H    0.130664
   111  H    0.027495
   112  H   -0.020193
   113  H   -0.010505
   114  H   -0.014397
   115  H    0.012154
   116  H    0.000365
   117  H    0.013015
   118  H    0.001392
   119  H    0.039931
   120  H    0.005111
   121  N   -0.117463
   122  C    0.098583
   123  C    0.083947
   124  O   -0.253776
   125  C    0.209894
   126  O   -0.296113
   127  H    0.165871
   128  H    0.023085
   129  H   -0.024492
   130  H   -0.005525
   131  H    0.164944
   132  N   -0.138882
   133  C    0.114456
   134  C    0.071398
   135  O   -0.233367
   136  C    0.020707
   137  H    0.117663
   138  H    0.024831
   139  H    0.039204
   140  H    0.030106
   141  H   -0.007338
   142  N   -0.159249
   143  C    0.084093
   144  C    0.090695
   145  O   -0.257537
   146  C    0.065403
   147  H    0.102207
   148  H    0.020389
   149  H    0.026065
   150  H    0.023704
   151  H    0.006394
   152  N   -0.165853
   153  C    0.164267
   154  C    0.046508
   155  O   -0.275637
   156  C   -0.058961
   157  C    0.099362
   158  C    0.146390
   159  O   -0.399399
   160  O   -0.432950
   161  H    0.113136
   162  H   -0.007563
   163  H    0.043350
   164  H   -0.020031
   165  H   -0.023888
   166  H   -0.016412
   167  N   -0.168099
   168  C    0.142319
   169  H    0.020358
   170  H    0.021911
   171  H    0.004885
   172  H    0.137171
   173  Ca   1.294203
   174  O   -0.316987
   175  H    0.170197
   176  H    0.160544
 Sum of Mulliken charges =   0.00000

 Dipole moment (field-independent basis, Debye):
    X=             30.1340    Y=             17.0786    Z=             -3.9097  Tot=             34.8572
 Quadrupole moment (field-independent basis, Debye-Ang):
   XX=           -693.4534   YY=           -258.5253   ZZ=           -497.9123
   XY=            165.6957   XZ=            -22.1903   YZ=            135.7777

 ESP charges:
               1
     1  C   -0.441532
     2  C    0.718658
     3  O   -0.611279
     4  H    0.138492
     5  H    0.091462
     6  H    0.126255
     7  N   -0.716157
     8  C    0.204075
     9  C    0.658906
    10  O   -0.588147
    11  C   -0.232516
    12  C    0.632358
    13  O   -0.715215
    14  O   -0.630150
    15  H    0.349043
    16  H    0.035486
    17  H    0.046810
    18  H    0.086482
    19  N   -0.549415
    20  C    0.084983
    21  C    0.481113
    22  O   -0.553218
    23  C   -0.025146
    24  C   -0.092530
    25  C    0.044041
    26  C    0.017827
    27  N   -0.323856
    28  H    0.325249
    29  H    0.072509
    30  H    0.044316
    31  H    0.059610
    32  H    0.029336
    33  H    0.040172
    34  H    0.024737
    35  H    0.008637
    36  H    0.095201
    37  H    0.077780
    38  H    0.312002
    39  H    0.319950
    40  H    0.324381
    41  N   -0.269775
    42  C    0.049333
    43  C    0.337782
    44  O   -0.521200
    45  C   -0.344489
    46  C    0.764938
    47  O   -0.725950
    48  O   -0.734364
    49  H    0.265090
    50  H    0.101205
    51  H    0.082090
    52  H    0.125162
    53  N    0.038784
    54  C   -0.280008
    55  C    0.595417
    56  O   -0.593679
    57  H    0.108532
    58  H    0.121020
    59  H    0.126405
    60  N   -0.377448
    61  C    0.183408
    62  C    0.385691
    63  O   -0.557684
    64  C   -0.366591
    65  C    0.851531
    66  N   -0.912744
    67  O   -0.681519
    68  H    0.225972
    69  H    0.093680
    70  H    0.145685
    71  H    0.073059
    72  H    0.397150
    73  H    0.415941
    74  N   -0.075640
    75  C   -0.465432
    76  C    0.780922
    77  O   -0.566628
    78  H    0.195488
    79  H    0.209370
    80  H    0.141203
    81  N   -0.849019
    82  C    0.450932
    83  C    0.586838
    84  O   -0.579654
    85  C    0.018653
    86  C   -0.164212
    87  C    0.113204
    88  C    0.081852
    89  C   -0.474221
    90  C   -0.501042
    91  C    0.562346
    92  O   -0.588429
    93  H    0.460974
    94  H   -0.053705
    95  H   -0.013349
    96  H   -0.072320
    97  H    0.086430
    98  H    0.086969
    99  H    0.216452
   100  H    0.157534
   101  H    0.409950
   102  N   -0.713732
   103  C    0.233263
   104  C    0.682470
   105  O   -0.582716
   106  C   -0.048635
   107  C   -0.020323
   108  C   -0.161132
   109  C   -0.107119
   110  H    0.364187
   111  H   -0.062810
   112  H    0.042690
   113  H    0.029202
   114  H   -0.003801
   115  H    0.002584
   116  H    0.061682
   117  H    0.041574
   118  H    0.007098
   119  H    0.145036
   120  H    0.043731
   121  N   -0.700172
   122  C    0.054072
   123  C    0.460629
   124  O   -0.376143
   125  C    0.263713
   126  O   -0.574925
   127  H    0.722798
   128  H    0.077211
   129  H   -0.039086
   130  H   -0.015705
   131  H    0.384187
   132  N   -0.559962
   133  C    0.299722
   134  C    0.442605
   135  O   -0.520963
   136  C   -0.419818
   137  H    0.317697
   138  H    0.053820
   139  H    0.126058
   140  H    0.124568
   141  H    0.089358
   142  N   -0.382121
   143  C    0.163040
   144  C    0.325613
   145  O   -0.484341
   146  C   -0.386325
   147  H    0.206974
   148  H    0.073082
   149  H    0.134953
   150  H    0.109733
   151  H    0.090380
   152  N    0.143779
   153  C   -0.587105
   154  C    0.538140
   155  O   -0.551997
   156  C    0.507527
   157  C   -0.300748
   158  C    0.847163
   159  O   -0.758913
   160  O   -0.786621
   161  H    0.121952
   162  H    0.189796
   163  H    0.008181
   164  H   -0.373431
   165  H    0.029498
   166  H    0.055419
   167  N   -0.025877
   168  C   -0.209483
   169  H    0.086705
   170  H    0.079866
   171  H    0.075308
   172  H    0.069571
   173  Ca   1.614824
   174  O   -0.883906
   175  H    0.431180
   176  H    0.416668
 Sum of ESP charges =   0.00000

 Normal termination of Gaussian 09 at Mon Sep 16 18:51:04 2019.
