 Gaussian 09, Revision D.01,
 Gaussian 09:  ES64L-G09RevD.01 24-Apr-2013

 ----------------------------------------------------------------------
 #maxdisk=50GB #B3LYP/SVP Density=Current scf=(tight) #IOP(5/87=12)Pop=
 (MK,readradii) iop(6/33=2) iop(6/42=6)
 ----------------------------------------------------------------------

 ------------
 SOL molecule
 ------------
 Symbolic Z-matrix:
 Charge =  0 Multiplicity = 1

                         Standard orientation:
 ---------------------------------------------------------------------
 Center     Atomic      Atomic             Coordinates (Angstroms)
 Number     Number       Type             X           Y           Z
 ---------------------------------------------------------------------
      1          6           0        2.436822    3.725064    4.893369
      2          6           0        1.837056    3.223969    3.586929
      3          8           0        2.566613    3.012084    2.625393
      4          1           0        3.344424    4.290960    4.682156
      5          1           0        1.717631    4.368808    5.400816
      6          1           0        2.679606    2.875232    5.532213
      7          7           0        0.501280    3.197126    3.479771
      8          6           0       -0.236064    2.875274    2.278423
      9          6           0       -0.374748    4.091841    1.375024
     10          8           0       -0.949829    5.119705    1.735131
     11          6           0       -1.553524    2.213249    2.661988
     12          6           0       -2.426127    1.719684    1.516494
     13          8           0       -3.482761    1.094348    1.756448
     14          8           0       -1.993018    1.933162    0.360577
     15          1           0       -0.070157    3.363533    4.297675
     16          1           0        0.435123    2.242138    1.704884
     17          1           0       -2.175329    2.885670    3.250299
     18          1           0       -1.226804    1.376315    3.281097
     19          7           0        0.242413    4.077703    0.188848
     20          6           0        0.531005    5.238464   -0.633799
     21          6           0       -0.548134    5.523922   -1.671283
     22          8           0       -0.567266    6.487569   -2.423559
     23          6           0        1.969162    5.006036   -1.086548
     24          6           0        3.221168    4.935373   -0.223364
     25          6           0        3.159401    5.869065    0.986472
     26          6           0        4.433541    5.823073    1.825133
     27          7           0        4.399624    6.620932    3.066170
     28          1           0        0.681980    3.203375   -0.045312
     29          1           0        0.460750    6.129363   -0.012942
     30          1           0        2.199057    5.872571   -1.695454
     31          1           0        2.078494    4.140544   -1.756675
     32          1           0        4.073288    5.220096   -0.843787
     33          1           0        3.291346    3.914101    0.145932
     34          1           0        2.326546    5.538354    1.610638
     35          1           0        2.969154    6.902868    0.721225
     36          1           0        5.246401    6.137402    1.182750
     37          1           0        4.550010    4.808441    2.198034
     38          1           0        3.538044    6.435696    3.541635
     39          1           0        5.138704    6.271403    3.650714
     40          1           0        4.360841    7.624808    2.936064
     41          7           0       -1.626838    4.746091   -1.588357
     42          6           0       -2.843911    4.895983   -2.352534
     43          6           0       -4.135720    4.521891   -1.635747
     44          8           0       -5.260600    4.657489   -2.114975
     45          6           0       -2.812719    4.237873   -3.732722
     46          6           0       -2.658792    2.729865   -3.736753
     47          8           0       -2.814240    2.056167   -2.691302
     48          8           0       -2.467288    2.235200   -4.868978
     49          1           0       -1.669588    3.988820   -0.920815
     50          1           0       -2.965473    5.940083   -2.631065
     51          1           0       -1.926087    4.697260   -4.174815
     52          1           0       -3.605564    4.620546   -4.381381
     53          7           0       -4.100319    4.001477   -0.410629
     54          6           0       -5.157508    3.891450    0.579697
     55          6           0       -5.995434    2.650873    0.336904
     56          8           0       -7.063747    2.551199    0.923907
     57          1           0       -3.202411    3.649433   -0.113430
     58          1           0       -5.740933    4.804510    0.453850
     59          1           0       -4.761768    3.850489    1.592965
     60          7           0       -5.593627    1.761845   -0.578181
     61          6           0       -6.409152    0.664930   -1.068075
     62          6           0       -6.790825   -0.447672   -0.109721
     63          8           0       -7.717916   -1.209251   -0.367015
     64          6           0       -5.659549    0.179783   -2.310905
     65          6           0       -4.548790   -0.815589   -2.036587
     66          7           0       -4.635584   -2.032305   -2.592797
     67          8           0       -3.646921   -0.676166   -1.225050
     68          1           0       -4.642744    1.842718   -0.898619
     69          1           0       -7.357736    1.082764   -1.418222
     70          1           0       -5.305361    1.035775   -2.887558
     71          1           0       -6.392657   -0.260678   -2.987549
     72          1           0       -5.347459   -2.293630   -3.261709
     73          1           0       -3.867383   -2.663964   -2.445236
     74          7           0       -6.062791   -0.544991    1.012195
     75          6           0       -6.379116   -1.497107    2.056424
     76          6           0       -5.146176   -2.351900    2.333708
     77          8           0       -5.236165   -3.118350    3.291912
     78          1           0       -5.235329    0.005247    1.162677
     79          1           0       -7.144939   -2.235113    1.793055
     80          1           0       -6.632475   -0.940889    2.954160
     81          7           0       -4.047422   -2.315792    1.583816
     82          6           0       -2.921037   -3.224761    1.637023
     83          6           0       -1.625834   -2.495990    1.333142
     84          8           0       -1.520473   -1.600307    0.494363
     85          6           0       -3.032654   -4.331217    0.586215
     86          6           0       -4.343203   -5.051623    0.350471
     87          6           0       -4.844042   -5.244334   -0.935656
     88          6           0       -4.957233   -5.738721    1.400788
     89          6           0       -6.067063   -5.904998   -1.101617
     90          6           0       -6.157343   -6.437759    1.233209
     91          6           0       -6.718289   -6.588197   -0.052407
     92          8           0       -7.917296   -7.194884   -0.293266
     93          1           0       -3.873941   -1.524786    0.978494
     94          1           0       -2.831699   -3.712733    2.609083
     95          1           0       -2.334615   -5.095503    0.908097
     96          1           0       -2.677649   -3.989734   -0.385001
     97          1           0       -4.316513   -4.841044   -1.794999
     98          1           0       -4.479818   -5.629836    2.365318
     99          1           0       -6.485407   -5.972094   -2.097201
    100          1           0       -6.752665   -6.863394    2.033351
    101          1           0       -8.329513   -7.568258    0.500440
    102          7           0       -0.551383   -3.031051    1.919542
    103          6           0        0.838408   -2.633535    1.787778
    104          6           0        1.587139   -3.673878    0.968334
    105          8           0        1.531488   -4.843344    1.340024
    106          6           0        1.580828   -2.338741    3.084739
    107          6           0        0.792214   -1.420172    4.002572
    108          6           0        2.948111   -1.713459    2.794810
    109          6           0        1.443769   -1.034931    5.328908
    110          1           0       -0.696466   -3.840509    2.499309
    111          1           0        0.781630   -1.729968    1.185745
    112          1           0        1.639707   -3.251017    3.675828
    113          1           0       -0.144080   -1.917235    4.264071
    114          1           0        0.612056   -0.498705    3.453990
    115          1           0        3.530033   -2.225235    2.034446
    116          1           0        2.859840   -0.659858    2.515109
    117          1           0        3.517466   -1.762083    3.728710
    118          1           0        1.696911   -1.910115    5.936914
    119          1           0        2.332497   -0.420025    5.183815
    120          1           0        0.721359   -0.453387    5.906255
    121          7           0        2.272605   -3.261055   -0.105870
    122          6           0        3.080945   -3.999814   -1.053351
    123          6           0        4.577713   -3.925974   -0.769917
    124          8           0        4.979213   -3.219556    0.152292
    125          6           0        2.900853   -3.392214   -2.439601
    126          8           0        3.127515   -1.996037   -2.428854
    127          1           0        2.229878   -2.260776   -0.206454
    128          1           0        2.685696   -5.007552   -1.167992
    129          1           0        1.938966   -3.575966   -2.925819
    130          1           0        3.615080   -3.694519   -3.204187
    131          1           0        2.404834   -1.555298   -1.977101
    132          7           0        5.463183   -4.650458   -1.458078
    133          6           0        6.890872   -4.636301   -1.231794
    134          6           0        7.479585   -3.265415   -1.551773
    135          8           0        8.349910   -2.872358   -0.774508
    136          6           0        7.509093   -5.748393   -2.074026
    137          1           0        5.060659   -5.393414   -2.022427
    138          1           0        7.122004   -4.854879   -0.191024
    139          1           0        7.668885   -5.468357   -3.116065
    140          1           0        8.480552   -5.917366   -1.615969
    141          1           0        6.940067   -6.674049   -2.022341
    142          7           0        6.985711   -2.543177   -2.559474
    143          6           0        7.187320   -1.138732   -2.852543
    144          6           0        6.980009   -0.088806   -1.763151
    145          8           0        7.874423    0.674645   -1.394821
    146          6           0        6.320652   -0.797517   -4.058096
    147          1           0        6.540685   -3.074749   -3.300205
    148          1           0        8.203022   -1.017164   -3.220337
    149          1           0        5.303530   -1.026827   -3.751047
    150          1           0        6.446800    0.235138   -4.389621
    151          1           0        6.569521   -1.474716   -4.869556
    152          7           0        5.869415   -0.297528   -1.042653
    153          6           0        5.450178    0.509789    0.080324
    154          6           0        6.062026    0.109776    1.420821
    155          8           0        6.385632    1.026785    2.178762
    156          6           0        3.934667    0.461722    0.156591
    157          6           0        3.193950    0.859713   -1.106517
    158          6           0        1.711096    0.507949   -1.029029
    159          8           0        0.926850    1.452873   -0.798427
    160          8           0        1.268354   -0.652182   -1.168586
    161          1           0        5.282695   -1.023276   -1.409327
    162          1           0        5.610232    1.563321   -0.142506
    163          1           0        3.759635    1.156155    0.986788
    164          1           0        3.708423   -0.561427    0.452194
    165          1           0        3.638953    0.391325   -1.991663
    166          1           0        3.247865    1.927863   -1.324805
    167          7           0        6.461452   -1.147730    1.547858
    168          6           0        7.279889   -1.561294    2.673791
    169          1           0        7.125562   -0.873878    3.506236
    170          1           0        6.997779   -2.568650    2.978084
    171          1           0        8.330749   -1.549168    2.383394
    172          1           0        6.294377   -1.696891    0.709999
    173         20           0       -1.224769    0.313724   -1.529506
    174          8           0       -0.307299    0.951683   -3.917174
    175          1           0        0.133820    0.516101   -4.646408
    176          1           0       -0.967636    1.508220   -4.340637
 ---------------------------------------------------------------------

 SCF Done:  E(RB3LYP) =  -5333.60723213     A.U. after   18 cycles

 The electronic state is 1-A.
 Alpha  occ. eigenvalues -- -145.38646 -19.15690 -19.13855 -19.13188 -19.13068
 Alpha  occ. eigenvalues --  -19.12965 -19.12617 -19.12462 -19.11445 -19.11141
 Alpha  occ. eigenvalues --  -19.10798 -19.10358 -19.09586 -19.08524 -19.07560
 Alpha  occ. eigenvalues --  -19.07385 -19.06256 -19.05935 -19.05676 -19.05588
 Alpha  occ. eigenvalues --  -19.04707 -19.04346 -19.04039 -19.03433 -15.44405
 Alpha  occ. eigenvalues --  -14.57383 -14.39013 -14.38165 -14.37961 -14.37302
 Alpha  occ. eigenvalues --  -14.36793 -14.36341 -14.35225 -14.33522 -14.33349
 Alpha  occ. eigenvalues --  -14.32984 -14.32611 -14.30906 -14.30110 -14.29953
 Alpha  occ. eigenvalues --  -12.58021 -12.57985 -12.57958 -10.32795 -10.31931
 Alpha  occ. eigenvalues --  -10.31559 -10.30774 -10.30288 -10.30227 -10.30071
 Alpha  occ. eigenvalues --  -10.29147 -10.28341 -10.27062 -10.26720 -10.26478
 Alpha  occ. eigenvalues --  -10.26306 -10.26153 -10.26019 -10.25466 -10.25302
 Alpha  occ. eigenvalues --  -10.25290 -10.24415 -10.24367 -10.24311 -10.24263
 Alpha  occ. eigenvalues --  -10.23797 -10.23768 -10.23730 -10.23643 -10.23511
 Alpha  occ. eigenvalues --  -10.23059 -10.22853 -10.22712 -10.22442 -10.22156
 Alpha  occ. eigenvalues --  -10.20662 -10.20627 -10.20567 -10.20323 -10.19905
 Alpha  occ. eigenvalues --  -10.19564 -10.19396 -10.19364 -10.19350 -10.19349
 Alpha  occ. eigenvalues --  -10.18755 -10.18737 -10.18708 -10.18660 -10.18650
 Alpha  occ. eigenvalues --  -10.18298 -10.18204 -10.18139 -10.18000 -10.17772
 Alpha  occ. eigenvalues --  -10.17741 -10.14290  -1.81207  -1.12793  -1.09131
 Alpha  occ. eigenvalues --   -1.08679  -1.08550  -1.06715  -1.06464  -1.05971
 Alpha  occ. eigenvalues --   -1.05107  -1.04891  -1.04029  -1.03788  -1.03398
 Alpha  occ. eigenvalues --   -1.02621  -1.02160  -1.01951  -1.00696  -1.00335
 Alpha  occ. eigenvalues --   -1.00030  -0.99912  -0.99641  -0.98668  -0.98523
 Alpha  occ. eigenvalues --   -0.98058  -0.97089  -0.96379  -0.95798  -0.94602
 Alpha  occ. eigenvalues --   -0.94460  -0.94044  -0.93457  -0.92463  -0.91625
 Alpha  occ. eigenvalues --   -0.90722  -0.90258  -0.90102  -0.89611  -0.89503
 Alpha  occ. eigenvalues --   -0.89017  -0.88392  -0.87336  -0.87009  -0.86034
 Alpha  occ. eigenvalues --   -0.84134  -0.82871  -0.81920  -0.80839  -0.80669
 Alpha  occ. eigenvalues --   -0.79761  -0.79010  -0.78560  -0.77954  -0.76469
 Alpha  occ. eigenvalues --   -0.76228  -0.75221  -0.75152  -0.74354  -0.73380
 Alpha  occ. eigenvalues --   -0.73215  -0.72937  -0.72563  -0.70888  -0.70733
 Alpha  occ. eigenvalues --   -0.69905  -0.69156  -0.69036  -0.68979  -0.68462
 Alpha  occ. eigenvalues --   -0.67533  -0.66344  -0.66311  -0.65610  -0.64934
 Alpha  occ. eigenvalues --   -0.64564  -0.63325  -0.63018  -0.62437  -0.62230
 Alpha  occ. eigenvalues --   -0.61414  -0.60935  -0.60851  -0.60741  -0.59714
 Alpha  occ. eigenvalues --   -0.59614  -0.59430  -0.58865  -0.58525  -0.58347
 Alpha  occ. eigenvalues --   -0.58032  -0.57443  -0.56685  -0.56533  -0.56185
 Alpha  occ. eigenvalues --   -0.56061  -0.55802  -0.55307  -0.55082  -0.55005
 Alpha  occ. eigenvalues --   -0.54754  -0.54589  -0.54291  -0.53891  -0.53651
 Alpha  occ. eigenvalues --   -0.53431  -0.53079  -0.52975  -0.52846  -0.52372
 Alpha  occ. eigenvalues --   -0.51917  -0.51143  -0.51073  -0.50758  -0.50574
 Alpha  occ. eigenvalues --   -0.50286  -0.49815  -0.49540  -0.49403  -0.49272
 Alpha  occ. eigenvalues --   -0.48925  -0.48694  -0.48595  -0.48405  -0.48243
 Alpha  occ. eigenvalues --   -0.48049  -0.47911  -0.47778  -0.47634  -0.47475
 Alpha  occ. eigenvalues --   -0.47348  -0.47129  -0.46614  -0.46236  -0.45897
 Alpha  occ. eigenvalues --   -0.45836  -0.45598  -0.45519  -0.45404  -0.45213
 Alpha  occ. eigenvalues --   -0.45011  -0.44797  -0.44773  -0.44471  -0.44327
 Alpha  occ. eigenvalues --   -0.44099  -0.44033  -0.43809  -0.43727  -0.43595
 Alpha  occ. eigenvalues --   -0.43383  -0.43155  -0.42991  -0.42788  -0.42634
 Alpha  occ. eigenvalues --   -0.42448  -0.42404  -0.42285  -0.42218  -0.42094
 Alpha  occ. eigenvalues --   -0.42023  -0.41946  -0.41837  -0.41513  -0.41390
 Alpha  occ. eigenvalues --   -0.41225  -0.40991  -0.40897  -0.40787  -0.40708
 Alpha  occ. eigenvalues --   -0.40521  -0.40301  -0.40286  -0.40096  -0.39864
 Alpha  occ. eigenvalues --   -0.39811  -0.39729  -0.39649  -0.39592  -0.39414
 Alpha  occ. eigenvalues --   -0.39261  -0.39103  -0.39042  -0.38900  -0.38759
 Alpha  occ. eigenvalues --   -0.38631  -0.38520  -0.38325  -0.38047  -0.37715
 Alpha  occ. eigenvalues --   -0.37621  -0.37492  -0.37350  -0.37258  -0.37077
 Alpha  occ. eigenvalues --   -0.36878  -0.36690  -0.36536  -0.35997  -0.35948
 Alpha  occ. eigenvalues --   -0.35854  -0.35604  -0.35412  -0.35382  -0.35350
 Alpha  occ. eigenvalues --   -0.35314  -0.35166  -0.34991  -0.34925  -0.34876
 Alpha  occ. eigenvalues --   -0.34417  -0.34145  -0.34113  -0.33767  -0.33470
 Alpha  occ. eigenvalues --   -0.32948  -0.32631  -0.32414  -0.32278  -0.32055
 Alpha  occ. eigenvalues --   -0.31715  -0.31231  -0.30912  -0.30767  -0.30441
 Alpha  occ. eigenvalues --   -0.29838  -0.29735  -0.29357  -0.29136  -0.29018
 Alpha  occ. eigenvalues --   -0.28880  -0.28675  -0.28364  -0.28317  -0.27594
 Alpha  occ. eigenvalues --   -0.27183  -0.27145  -0.26952  -0.26555  -0.26165
 Alpha  occ. eigenvalues --   -0.25653  -0.25037  -0.24620  -0.24381  -0.23982
 Alpha  occ. eigenvalues --   -0.23931  -0.23807  -0.23667  -0.23612  -0.23235
 Alpha  occ. eigenvalues --   -0.23110  -0.22912  -0.22881  -0.22553  -0.22432
 Alpha  occ. eigenvalues --   -0.21788  -0.21394  -0.20932  -0.20706  -0.20368
 Alpha  occ. eigenvalues --   -0.19909  -0.19411  -0.18751
 Alpha virt. eigenvalues --   -0.09718  -0.03684  -0.03237  -0.02334  -0.01741
 Alpha virt. eigenvalues --   -0.01575  -0.00930  -0.00575  -0.00489   0.00355
 Alpha virt. eigenvalues --    0.00490   0.00605   0.00859   0.00975   0.01334

 Mulliken charges:
               1
     1  C    0.061062
     2  C    0.033281
     3  O   -0.293535
     4  H   -0.037249
     5  H    0.020173
     6  H    0.067375
     7  N   -0.120877
     8  C    0.133567
     9  C    0.033777
    10  O   -0.301809
    11  C    0.052564
    12  C    0.150578
    13  O   -0.349706
    14  O   -0.478293
    15  H    0.121088
    16  H   -0.010729
    17  H    0.018513
    18  H    0.016496
    19  N   -0.165137
    20  C    0.158408
    21  C    0.069748
    22  O   -0.278003
    23  C    0.009862
    24  C    0.032015
    25  C   -0.063708
    26  C    0.012095
    27  N    0.086646
    28  H    0.146544
    29  H    0.005610
    30  H   -0.001974
    31  H    0.025808
    32  H    0.011569
    33  H    0.049528
    34  H    0.046279
    35  H    0.010035
    36  H    0.068524
    37  H    0.087420
    38  H    0.174208
    39  H    0.200549
    40  H    0.189628
    41  N   -0.131772
    42  C    0.118947
    43  C    0.056102
    44  O   -0.286494
    45  C    0.045520
    46  C    0.153735
    47  O   -0.452444
    48  O   -0.402190
    49  H    0.154110
    50  H    0.009000
    51  H    0.003657
    52  H    0.030123
    53  N   -0.196837
    54  C    0.245555
    55  C    0.029842
    56  O   -0.297059
    57  H    0.124118
    58  H    0.025768
    59  H    0.026848
    60  N   -0.145563
    61  C    0.125361
    62  C    0.078960
    63  O   -0.279150
    64  C    0.065843
    65  C    0.063449
    66  N   -0.036087
    67  O   -0.345765
    68  H    0.155469
    69  H    0.028696
    70  H    0.074307
    71  H   -0.004686
    72  H    0.131040
    73  H    0.119180
    74  N   -0.199714
    75  C    0.264676
    76  C   -0.003093
    77  O   -0.315928
    78  H    0.154920
    79  H    0.055429
    80  H    0.033501
    81  N   -0.127447
    82  C    0.109577
    83  C    0.113931
    84  O   -0.337533
    85  C    0.154773
    86  C   -0.020291
    87  C   -0.001619
    88  C    0.042419
    89  C   -0.008596
    90  C   -0.028317
    91  C    0.144287
    92  O   -0.202995
    93  H    0.154518
    94  H    0.000868
    95  H   -0.000131
    96  H   -0.046818
    97  H   -0.066768
    98  H   -0.019399
    99  H   -0.031650
   100  H   -0.041798
   101  H    0.181771
   102  N   -0.119789
   103  C    0.140325
   104  C    0.056179
   105  O   -0.283573
   106  C   -0.056642
   107  C    0.004286
   108  C    0.012422
   109  C    0.022195
   110  H    0.125077
   111  H   -0.003429
   112  H   -0.014744
   113  H   -0.004201
   114  H    0.001061
   115  H    0.051002
   116  H    0.016423
   117  H    0.008726
   118  H    0.008491
   119  H    0.010748
   120  H    0.003728
   121  N   -0.121397
   122  C    0.122599
   123  C    0.099096
   124  O   -0.272685
   125  C    0.222423
   126  O   -0.359535
   127  H    0.134407
   128  H    0.021511
   129  H    0.004620
   130  H   -0.019018
   131  H    0.180057
   132  N   -0.122609
   133  C    0.078989
   134  C    0.056831
   135  O   -0.254773
   136  C    0.038224
   137  H    0.117074
   138  H    0.024685
   139  H    0.014646
   140  H    0.041211
   141  H    0.024708
   142  N   -0.113513
   143  C    0.087759
   144  C    0.067710
   145  O   -0.247687
   146  C    0.001948
   147  H    0.111764
   148  H    0.010332
   149  H    0.026144
   150  H    0.036162
   151  H    0.006922
   152  N   -0.178986
   153  C    0.154335
   154  C    0.070350
   155  O   -0.310255
   156  C   -0.083406
   157  C    0.105365
   158  C    0.184102
   159  O   -0.412546
   160  O   -0.450247
   161  H    0.136090
   162  H   -0.016901
   163  H    0.053776
   164  H   -0.005843
   165  H    0.007549
   166  H   -0.016527
   167  N   -0.155164
   168  C    0.143032
   169  H    0.025465
   170  H    0.013102
   171  H    0.033485
   172  H    0.154064
   173  Ca   1.317303
   174  O   -0.331987
   175  H    0.173814
   176  H    0.155062
 Sum of Mulliken charges =   0.00000

 Dipole moment (field-independent basis, Debye):
    X=             26.5410    Y=              2.2206    Z=              7.3287  Tot=             27.6236
 Quadrupole moment (field-independent basis, Debye-Ang):
   XX=           -677.0831   YY=           -433.2688   ZZ=           -508.8178
   XY=            114.9712   XZ=             16.3650   YZ=            135.3157

 ESP charges:
               1
     1  C   -0.524488
     2  C    0.862260
     3  O   -0.630134
     4  H    0.121899
     5  H    0.115235
     6  H    0.159284
     7  N   -0.735861
     8  C    0.553244
     9  C    0.200378
    10  O   -0.562139
    11  C   -0.357583
    12  C    0.956363
    13  O   -0.762035
    14  O   -0.926037
    15  H    0.340018
    16  H   -0.054522
    17  H    0.090158
    18  H    0.037727
    19  N    0.222955
    20  C   -0.352681
    21  C    0.665246
    22  O   -0.562337
    23  C    0.025283
    24  C   -0.100914
    25  C    0.059995
    26  C    0.085949
    27  N   -0.467998
    28  H    0.122238
    29  H    0.137308
    30  H    0.021826
    31  H    0.025638
    32  H    0.057048
    33  H    0.033305
    34  H   -0.002499
    35  H    0.020682
    36  H    0.069748
    37  H    0.052850
    38  H    0.314514
    39  H    0.366097
    40  H    0.362080
    41  N   -0.461539
    42  C    0.019738
    43  C    0.366764
    44  O   -0.531782
    45  C   -0.258905
    46  C    0.873561
    47  O   -0.792710
    48  O   -0.716999
    49  H    0.210288
    50  H    0.130651
    51  H    0.069194
    52  H    0.100605
    53  N   -0.129584
    54  C   -0.423786
    55  C    0.652622
    56  O   -0.586032
    57  H    0.217713
    58  H    0.184858
    59  H    0.158911
    60  N   -0.313718
    61  C   -0.173589
    62  C    0.546063
    63  O   -0.556034
    64  C   -0.111423
    65  C    0.374585
    66  N   -0.642956
    67  O   -0.444446
    68  H    0.353714
    69  H    0.138806
    70  H    0.121410
    71  H    0.072160
    72  H    0.353337
    73  H    0.311510
    74  N   -0.189239
    75  C   -0.289466
    76  C    0.752046
    77  O   -0.609654
    78  H    0.261244
    79  H    0.160024
    80  H    0.117330
    81  N   -0.718077
    82  C    0.298189
    83  C    0.552976
    84  O   -0.596528
    85  C   -0.126329
    86  C    0.282311
    87  C   -0.430926
    88  C   -0.284677
    89  C   -0.015427
    90  C   -0.155578
    91  C    0.205976
    92  O   -0.525212
    93  H    0.396363
    94  H    0.017197
    95  H    0.020085
    96  H    0.030701
    97  H    0.173268
    98  H    0.170249
    99  H    0.104678
   100  H    0.118337
   101  H    0.416862
   102  N   -0.642651
   103  C    0.074763
   104  C    0.569943
   105  O   -0.571346
   106  C    0.273511
   107  C    0.227547
   108  C   -0.378543
   109  C   -0.295901
   110  H    0.330190
   111  H    0.071686
   112  H   -0.048393
   113  H   -0.040710
   114  H   -0.052741
   115  H    0.044538
   116  H    0.072852
   117  H    0.088646
   118  H    0.067611
   119  H    0.054147
   120  H    0.065534
   121  N   -0.120234
   122  C   -0.356533
   123  C    0.721215
   124  O   -0.492335
   125  C    0.151537
   126  O   -0.532125
   127  H    0.101524
   128  H    0.155095
   129  H    0.046782
   130  H    0.040292
   131  H    0.349007
   132  N   -0.626421
   133  C    0.341922
   134  C    0.436011
   135  O   -0.512015
   136  C   -0.307455
   137  H    0.296408
   138  H    0.033390
   139  H    0.068156
   140  H    0.091851
   141  H    0.097688
   142  N   -0.432616
   143  C    0.316660
   144  C    0.248027
   145  O   -0.489721
   146  C   -0.347268
   147  H    0.277136
   148  H    0.014897
   149  H    0.079921
   150  H    0.118892
   151  H    0.080455
   152  N    0.056591
   153  C   -0.027508
   154  C    0.431470
   155  O   -0.568197
   156  C   -0.002630
   157  C   -0.181775
   158  C    0.797063
   159  O   -0.716410
   160  O   -0.665037
   161  H    0.043115
   162  H    0.042881
   163  H    0.076433
   164  H   -0.056984
   165  H   -0.005407
   166  H    0.085227
   167  N    0.020793
   168  C   -0.266059
   169  H    0.104804
   170  H    0.086196
   171  H    0.111304
   172  H    0.093973
   173  Ca   1.552430
   174  O   -0.879724
   175  H    0.426991
   176  H    0.389823
 Sum of ESP charges =   0.00000

 Normal termination of Gaussian 09 at Mon Sep 16 20:08:53 2019.
