 Gaussian 09, Revision D.01,
 Gaussian 09:  ES64L-G09RevD.01 24-Apr-2013

 ----------------------------------------------------------------------
 #maxdisk=50GB #B3LYP/SVP Density=Current scf=(tight) #IOP(5/87=12)Pop=
 (MK,readradii) iop(6/33=2) iop(6/42=6)
 ----------------------------------------------------------------------

 ------------
 SOL molecule
 ------------
 Symbolic Z-matrix:
 Charge =  0 Multiplicity = 1

                         Standard orientation:
 ---------------------------------------------------------------------
 Center     Atomic      Atomic             Coordinates (Angstroms)
 Number     Number       Type             X           Y           Z
 ---------------------------------------------------------------------
      1          6           0       -0.850847   -4.205688    5.985111
      2          6           0       -0.652011   -3.637100    4.590919
      3          8           0       -1.567539   -3.612914    3.763136
      4          1           0       -1.152001   -3.407010    6.662476
      5          1           0       -1.626113   -4.971064    5.958734
      6          1           0        0.083255   -4.645859    6.335369
      7          7           0        0.595393   -3.372109    4.204315
      8          6           0        1.013536   -2.913544    2.900676
      9          6           0        1.094733   -4.104143    1.953163
     10          8           0        1.969224   -4.971513    2.008252
     11          6           0        2.364725   -2.204210    2.981500
     12          6           0        2.858219   -1.534572    1.712071
     13          8           0        3.649636   -0.578338    1.864966
     14          8           0        2.350162   -1.829808    0.615890
     15          1           0        1.301093   -3.596765    4.892514
     16          1           0        0.244942   -2.250308    2.506744
     17          1           0        3.196386   -2.784588    3.383000
     18          1           0        2.214426   -1.459697    3.773024
     19          7           0        0.240273   -4.053127    0.930570
     20          6           0       -0.025343   -5.128173   -0.004001
     21          6           0        1.117038   -5.342208   -0.983314
     22          8           0        1.051945   -6.295934   -1.745921
     23          6           0       -1.342910   -4.911040   -0.756710
     24          6           0       -2.487799   -5.302664    0.162016
     25          6           0       -3.819723   -5.281204   -0.588263
     26          6           0       -3.998051   -6.465018   -1.535091
     27          7           0       -5.349610   -6.639970   -2.085528
     28          1           0       -0.176643   -3.140589    0.796198
     29          1           0       -0.051368   -6.110989    0.455124
     30          1           0       -1.438198   -5.596316   -1.603714
     31          1           0       -1.381562   -3.890245   -1.132321
     32          1           0       -2.429157   -4.601718    0.984291
     33          1           0       -2.290754   -6.271260    0.615001
     34          1           0       -3.846282   -4.391199   -1.218330
     35          1           0       -4.615122   -5.168625    0.156295
     36          1           0       -3.721900   -7.327087   -0.925600
     37          1           0       -3.312941   -6.321236   -2.370286
     38          1           0       -5.506010   -7.397149   -2.745997
     39          1           0       -6.070328   -6.904928   -1.423966
     40          1           0       -5.489490   -5.816528   -2.654541
     41          7           0        2.165081   -4.517871   -1.128490
     42          6           0        3.385797   -4.875510   -1.809405
     43          6           0        4.596892   -4.500773   -0.980839
     44          8           0        5.708790   -4.833224   -1.387484
     45          6           0        3.386279   -4.104447   -3.133173
     46          6           0        3.273006   -2.582327   -3.169513
     47          8           0        3.285720   -1.956910   -4.255925
     48          8           0        2.950829   -1.982959   -2.118199
     49          1           0        2.059321   -3.608584   -0.715075
     50          1           0        3.430642   -5.938840   -2.023923
     51          1           0        2.512600   -4.422887   -3.690112
     52          1           0        4.206947   -4.379304   -3.791549
     53          7           0        4.402003   -3.878629    0.187431
     54          6           0        5.459648   -3.267283    0.972761
     55          6           0        6.083033   -2.029138    0.364414
     56          8           0        7.292530   -1.899592    0.534512
     57          1           0        3.467773   -3.570671    0.412323
     58          1           0        6.223834   -4.019603    1.163114
     59          1           0        5.091209   -3.046905    1.973804
     60          7           0        5.464503   -1.249744   -0.530106
     61          6           0        6.203879   -0.211478   -1.198407
     62          6           0        6.490470    1.009855   -0.335671
     63          8           0        7.149781    1.939794   -0.776035
     64          6           0        5.639100    0.151761   -2.569713
     65          6           0        4.382305    1.007416   -2.534770
     66          7           0        4.069579    1.642914   -3.662265
     67          8           0        3.696588    0.968745   -1.510760
     68          1           0        4.507165   -1.532986   -0.722405
     69          1           0        7.178437   -0.588484   -1.518724
     70          1           0        5.474706   -0.638455   -3.303970
     71          1           0        6.441795    0.744597   -3.011558
     72          1           0        4.677691    1.563911   -4.455775
     73          1           0        3.160079    2.055210   -3.860814
     74          7           0        6.078860    0.981692    0.931761
     75          6           0        6.111232    2.114309    1.831945
     76          6           0        4.874393    2.990664    1.923221
     77          8           0        4.864692    3.924279    2.723263
     78          1           0        5.507323    0.185113    1.189066
     79          1           0        6.865839    2.793565    1.439287
     80          1           0        6.323076    1.729515    2.839147
     81          7           0        3.852555    2.734618    1.111809
     82          6           0        2.614770    3.496815    1.099802
     83          6           0        1.325775    2.705016    1.165714
     84          8           0        1.268644    1.501705    0.928696
     85          6           0        2.572744    4.441755   -0.095281
     86          6           0        3.826740    5.260936   -0.261817
     87          6           0        4.820075    4.802660   -1.130534
     88          6           0        4.000464    6.437807    0.469070
     89          6           0        6.032996    5.494592   -1.292566
     90          6           0        5.215939    7.123059    0.319239
     91          6           0        6.228658    6.669475   -0.550969
     92          8           0        7.443635    7.287553   -0.516172
     93          1           0        3.858932    1.811219    0.703282
     94          1           0        2.621282    4.064457    2.032133
     95          1           0        1.789861    5.199297    0.024404
     96          1           0        2.394274    3.867612   -1.003360
     97          1           0        4.533860    3.933146   -1.685985
     98          1           0        3.272562    6.776162    1.191963
     99          1           0        6.731777    5.104126   -2.021498
    100          1           0        5.480932    7.970833    0.932802
    101          1           0        7.444783    8.143172   -0.088955
    102          7           0        0.265651    3.467603    1.452766
    103          6           0       -1.096848    2.964237    1.470682
    104          6           0       -1.976374    3.918992    0.685841
    105          8           0       -1.900884    5.088886    1.056448
    106          6           0       -1.613574    2.645453    2.871493
    107          6           0       -1.027514    1.325589    3.386753
    108          6           0       -3.135677    2.616377    2.977588
    109          6           0       -1.520557    0.042238    2.730005
    110          1           0        0.458399    4.438658    1.648977
    111          1           0       -1.128259    2.024491    0.921781
    112          1           0       -1.210137    3.437249    3.499185
    113          1           0       -1.159664    1.320103    4.468744
    114          1           0        0.035193    1.433761    3.190660
    115          1           0       -3.440805    2.225133    3.950175
    116          1           0       -3.523428    3.626097    2.857530
    117          1           0       -3.579807    2.024268    2.180873
    118          1           0       -1.293702    0.043462    1.658634
    119          1           0       -1.091087   -0.875391    3.145831
    120          1           0       -2.593293   -0.033879    2.896568
    121          7           0       -2.817404    3.472829   -0.251125
    122          6           0       -3.829388    4.231784   -0.959698
    123          6           0       -5.183532    3.971962   -0.334809
    124          8           0       -5.218706    3.290120    0.684433
    125          6           0       -3.884500    3.667268   -2.380115
    126          8           0       -4.098393    2.282159   -2.544502
    127          1           0       -2.817470    2.462841   -0.345072
    128          1           0       -3.683007    5.312402   -1.021647
    129          1           0       -2.894206    3.884625   -2.771745
    130          1           0       -4.645108    4.197349   -2.955172
    131          1           0       -3.903801    2.080634   -3.466034
    132          7           0       -6.327010    4.386842   -0.884568
    133          6           0       -7.636331    3.983532   -0.396800
    134          6           0       -7.966217    2.544633   -0.763058
    135          8           0       -8.637057    1.848967   -0.003503
    136          6           0       -8.646667    5.007869   -0.919444
    137          1           0       -6.382353    5.190337   -1.490400
    138          1           0       -7.761249    3.989740    0.681883
    139          1           0       -9.560162    4.779175   -0.369784
    140          1           0       -8.254340    5.986088   -0.654551
    141          1           0       -8.742448    4.887949   -2.005973
    142          7           0       -7.518757    1.999491   -1.892880
    143          6           0       -7.693280    0.606131   -2.242150
    144          6           0       -7.073448   -0.355938   -1.234811
    145          8           0       -7.807464   -1.215844   -0.740461
    146          6           0       -7.170966    0.267483   -3.627035
    147          1           0       -6.882545    2.504422   -2.495523
    148          1           0       -8.715236    0.230986   -2.356485
    149          1           0       -6.126895    0.567261   -3.730716
    150          1           0       -7.347163   -0.787682   -3.872760
    151          1           0       -7.651315    0.974134   -4.295248
    152          7           0       -5.794245   -0.201683   -0.885462
    153          6           0       -5.179720   -1.068251    0.085114
    154          6           0       -5.794126   -0.861904    1.466029
    155          8           0       -6.098805   -1.800980    2.195965
    156          6           0       -3.677812   -0.769137    0.163874
    157          6           0       -2.961188   -0.872572   -1.173904
    158          6           0       -1.483410   -0.695429   -0.853606
    159          8           0       -0.837004   -1.623589   -0.333241
    160          8           0       -0.922111    0.390300   -1.138977
    161          1           0       -5.271184    0.504452   -1.387040
    162          1           0       -5.362769   -2.124438   -0.118754
    163          1           0       -3.265448   -1.539950    0.819392
    164          1           0       -3.556211    0.249548    0.524005
    165          1           0       -3.305801   -0.088006   -1.844276
    166          1           0       -3.013486   -1.868458   -1.634420
    167          7           0       -6.211692    0.364342    1.774022
    168          6           0       -6.834531    0.656862    3.048150
    169          1           0       -6.247744    1.409319    3.574930
    170          1           0       -7.842635    1.034937    2.881840
    171          1           0       -6.881027   -0.252129    3.647877
    172          1           0       -6.062875    1.190705    1.211725
    173         20           0        1.479191   -0.209595   -1.183394
    174          8           0        0.172803   -1.119535   -3.325953
    175          1           0        0.079710   -1.830925   -3.958217
    176          1           0       -0.552411   -0.527449   -3.513836
 ---------------------------------------------------------------------

 SCF Done:  E(RB3LYP) =  -5333.56271712     A.U. after   20 cycles

 The electronic state is 1-A.
 Alpha  occ. eigenvalues -- -145.36414 -19.21067 -19.17110 -19.14234 -19.13687
 Alpha  occ. eigenvalues --  -19.11995 -19.11890 -19.11355 -19.10645 -19.10420
 Alpha  occ. eigenvalues --  -19.09493 -19.08902 -19.07443 -19.07204 -19.06327
 Alpha  occ. eigenvalues --  -19.05221 -19.05188 -19.05176 -19.04695 -19.03240
 Alpha  occ. eigenvalues --  -19.03078 -19.02809 -19.02752 -19.01184 -15.42214
 Alpha  occ. eigenvalues --  -14.58950 -14.40586 -14.39105 -14.38271 -14.37089
 Alpha  occ. eigenvalues --  -14.36946 -14.36296 -14.33731 -14.33287 -14.31634
 Alpha  occ. eigenvalues --  -14.31517 -14.29871 -14.29653 -14.29069 -14.28987
 Alpha  occ. eigenvalues --  -12.55838 -12.55804 -12.55738 -10.34498 -10.32840
 Alpha  occ. eigenvalues --  -10.30920 -10.30020 -10.29792 -10.29423 -10.29314
 Alpha  occ. eigenvalues --  -10.29090 -10.28898 -10.28265 -10.26914 -10.26543
 Alpha  occ. eigenvalues --  -10.26418 -10.26337 -10.25761 -10.24584 -10.24039
 Alpha  occ. eigenvalues --  -10.23925 -10.23760 -10.23512 -10.23284 -10.23242
 Alpha  occ. eigenvalues --  -10.23230 -10.22854 -10.22794 -10.22083 -10.21862
 Alpha  occ. eigenvalues --  -10.21808 -10.21775 -10.21761 -10.21545 -10.20582
 Alpha  occ. eigenvalues --  -10.20508 -10.20124 -10.19803 -10.19515 -10.19281
 Alpha  occ. eigenvalues --  -10.18441 -10.18349 -10.18274 -10.18190 -10.18161
 Alpha  occ. eigenvalues --  -10.17430 -10.17174 -10.17144 -10.16653 -10.16547
 Alpha  occ. eigenvalues --  -10.16456 -10.16449 -10.16410 -10.16175 -10.15567
 Alpha  occ. eigenvalues --  -10.15372 -10.13405  -1.79202  -1.13965  -1.09089
 Alpha  occ. eigenvalues --   -1.07813  -1.07164  -1.06880  -1.06574  -1.05587
 Alpha  occ. eigenvalues --   -1.04299  -1.04165  -1.03608  -1.03491  -1.03413
 Alpha  occ. eigenvalues --   -1.03169  -1.02384  -1.00684  -1.00530  -0.99583
 Alpha  occ. eigenvalues --   -0.99038  -0.98646  -0.98560  -0.97977  -0.97220
 Alpha  occ. eigenvalues --   -0.97072  -0.96691  -0.95939  -0.95090  -0.94916
 Alpha  occ. eigenvalues --   -0.93773  -0.93728  -0.93136  -0.91965  -0.90104
 Alpha  occ. eigenvalues --   -0.89421  -0.89200  -0.88995  -0.88813  -0.88276
 Alpha  occ. eigenvalues --   -0.87588  -0.87066  -0.86237  -0.85740  -0.84960
 Alpha  occ. eigenvalues --   -0.83691  -0.82655  -0.81943  -0.81141  -0.80745
 Alpha  occ. eigenvalues --   -0.80319  -0.79602  -0.77211  -0.76563  -0.75161
 Alpha  occ. eigenvalues --   -0.75031  -0.74185  -0.74020  -0.73472  -0.72440
 Alpha  occ. eigenvalues --   -0.71866  -0.71303  -0.71127  -0.70682  -0.70350
 Alpha  occ. eigenvalues --   -0.69917  -0.69482  -0.68607  -0.68185  -0.67634
 Alpha  occ. eigenvalues --   -0.67467  -0.66935  -0.65590  -0.64823  -0.63754
 Alpha  occ. eigenvalues --   -0.63668  -0.63531  -0.63022  -0.62587  -0.62268
 Alpha  occ. eigenvalues --   -0.61960  -0.61310  -0.60889  -0.60774  -0.60010
 Alpha  occ. eigenvalues --   -0.59893  -0.59467  -0.59133  -0.57844  -0.57446
 Alpha  occ. eigenvalues --   -0.57297  -0.57116  -0.56693  -0.56211  -0.55920
 Alpha  occ. eigenvalues --   -0.55743  -0.55229  -0.55030  -0.54912  -0.54753
 Alpha  occ. eigenvalues --   -0.54292  -0.54133  -0.53848  -0.53668  -0.53040
 Alpha  occ. eigenvalues --   -0.52855  -0.52613  -0.52285  -0.52058  -0.51924
 Alpha  occ. eigenvalues --   -0.51571  -0.51078  -0.50750  -0.50482  -0.50093
 Alpha  occ. eigenvalues --   -0.49858  -0.49617  -0.49173  -0.49001  -0.48911
 Alpha  occ. eigenvalues --   -0.48307  -0.48031  -0.47913  -0.47821  -0.47503
 Alpha  occ. eigenvalues --   -0.47162  -0.47056  -0.46982  -0.46763  -0.46681
 Alpha  occ. eigenvalues --   -0.46210  -0.46122  -0.45979  -0.45820  -0.45638
 Alpha  occ. eigenvalues --   -0.45423  -0.45166  -0.44853  -0.44679  -0.44557
 Alpha  occ. eigenvalues --   -0.44491  -0.44319  -0.44225  -0.43964  -0.43899
 Alpha  occ. eigenvalues --   -0.43592  -0.43485  -0.43379  -0.43162  -0.43085
 Alpha  occ. eigenvalues --   -0.42804  -0.42796  -0.42736  -0.42505  -0.42310
 Alpha  occ. eigenvalues --   -0.42184  -0.42053  -0.41651  -0.41411  -0.41383
 Alpha  occ. eigenvalues --   -0.41271  -0.41093  -0.40815  -0.40651  -0.40456
 Alpha  occ. eigenvalues --   -0.40273  -0.40150  -0.39961  -0.39909  -0.39816
 Alpha  occ. eigenvalues --   -0.39578  -0.39554  -0.39446  -0.39306  -0.39039
 Alpha  occ. eigenvalues --   -0.38775  -0.38745  -0.38628  -0.38492  -0.38459
 Alpha  occ. eigenvalues --   -0.38258  -0.38221  -0.38023  -0.37937  -0.37731
 Alpha  occ. eigenvalues --   -0.37487  -0.37404  -0.37317  -0.37168  -0.36846
 Alpha  occ. eigenvalues --   -0.36808  -0.36754  -0.36614  -0.36482  -0.36213
 Alpha  occ. eigenvalues --   -0.35966  -0.35855  -0.35675  -0.35494  -0.35374
 Alpha  occ. eigenvalues --   -0.35336  -0.34907  -0.34803  -0.34616  -0.34605
 Alpha  occ. eigenvalues --   -0.34407  -0.34250  -0.34164  -0.33932  -0.33839
 Alpha  occ. eigenvalues --   -0.33230  -0.32798  -0.32530  -0.32230  -0.32167
 Alpha  occ. eigenvalues --   -0.32107  -0.31852  -0.31642  -0.31550  -0.31408
 Alpha  occ. eigenvalues --   -0.30751  -0.30589  -0.30256  -0.30184  -0.29888
 Alpha  occ. eigenvalues --   -0.29807  -0.29605  -0.29500  -0.28586  -0.28395
 Alpha  occ. eigenvalues --   -0.27878  -0.27404  -0.27351  -0.27287  -0.26950
 Alpha  occ. eigenvalues --   -0.26610  -0.25690  -0.25608  -0.25550  -0.24985
 Alpha  occ. eigenvalues --   -0.24473  -0.23861  -0.23569  -0.23464  -0.23358
 Alpha  occ. eigenvalues --   -0.23222  -0.22648  -0.22527  -0.22249  -0.22103
 Alpha  occ. eigenvalues --   -0.21720  -0.21354  -0.21045  -0.20542  -0.20431
 Alpha  occ. eigenvalues --   -0.20005  -0.19946  -0.19735  -0.19249  -0.18528
 Alpha  occ. eigenvalues --   -0.18419  -0.17860  -0.17021
 Alpha virt. eigenvalues --   -0.11105  -0.05194  -0.04433  -0.03986  -0.03007
 Alpha virt. eigenvalues --   -0.01835  -0.01650  -0.00369  -0.00152   0.00096
 Alpha virt. eigenvalues --    0.00707   0.00784   0.01245   0.01379   0.01588

 Mulliken charges:
               1
     1  C    0.062990
     2  C    0.019714
     3  O   -0.312059
     4  H    0.038556
     5  H    0.032818
     6  H    0.008130
     7  N   -0.119309
     8  C    0.126106
     9  C    0.057426
    10  O   -0.289191
    11  C    0.069967
    12  C    0.130572
    13  O   -0.365733
    14  O   -0.470743
    15  H    0.115066
    16  H   -0.002637
    17  H    0.009247
    18  H    0.003579
    19  N   -0.144439
    20  C    0.166707
    21  C    0.036697
    22  O   -0.323433
    23  C   -0.000460
    24  C    0.022169
    25  C    0.002870
    26  C    0.000962
    27  N    0.084546
    28  H    0.157416
    29  H    0.001512
    30  H   -0.024686
    31  H    0.014210
    32  H    0.048925
    33  H    0.002075
    34  H    0.008677
    35  H    0.050060
    36  H    0.073603
    37  H    0.083548
    38  H    0.180137
    39  H    0.196377
    40  H    0.195017
    41  N   -0.154167
    42  C    0.183011
    43  C    0.045962
    44  O   -0.285438
    45  C    0.075296
    46  C    0.102012
    47  O   -0.393369
    48  O   -0.491145
    49  H    0.154853
    50  H    0.012485
    51  H   -0.013635
    52  H    0.007749
    53  N   -0.164461
    54  C    0.263525
    55  C   -0.001050
    56  O   -0.298686
    57  H    0.152946
    58  H    0.016566
    59  H    0.007767
    60  N   -0.174109
    61  C    0.199816
    62  C    0.017941
    63  O   -0.285921
    64  C    0.016291
    65  C    0.115570
    66  N   -0.025130
    67  O   -0.384100
    68  H    0.166016
    69  H    0.026921
    70  H    0.067570
    71  H    0.015534
    72  H    0.134085
    73  H    0.118713
    74  N   -0.164370
    75  C    0.237227
    76  C    0.023284
    77  O   -0.303838
    78  H    0.157463
    79  H    0.044290
    80  H    0.034201
    81  N   -0.133989
    82  C    0.097167
    83  C    0.127869
    84  O   -0.321992
    85  C    0.151849
    86  C   -0.037951
    87  C    0.029434
    88  C    0.017599
    89  C   -0.011472
    90  C   -0.030600
    91  C    0.182050
    92  O   -0.204385
    93  H    0.153246
    94  H    0.011025
    95  H   -0.015156
    96  H   -0.044309
    97  H   -0.065097
    98  H   -0.041103
    99  H   -0.021666
   100  H   -0.054120
   101  H    0.170240
   102  N   -0.132795
   103  C    0.172064
   104  C    0.019808
   105  O   -0.295160
   106  C   -0.090202
   107  C    0.033999
   108  C    0.099199
   109  C   -0.017433
   110  H    0.132854
   111  H   -0.011508
   112  H   -0.020508
   113  H   -0.010209
   114  H    0.001324
   115  H    0.011169
   116  H    0.009659
   117  H   -0.003700
   118  H    0.037783
   119  H    0.031558
   120  H    0.004758
   121  N   -0.103163
   122  C    0.123187
   123  C    0.078231
   124  O   -0.249929
   125  C    0.190477
   126  O   -0.303963
   127  H    0.145576
   128  H    0.048218
   129  H    0.022110
   130  H   -0.013324
   131  H    0.199051
   132  N   -0.135802
   133  C    0.074222
   134  C    0.052232
   135  O   -0.247960
   136  C    0.036714
   137  H    0.117196
   138  H    0.029059
   139  H    0.053048
   140  H    0.034162
   141  H    0.014339
   142  N   -0.105099
   143  C    0.104125
   144  C    0.034564
   145  O   -0.260388
   146  C    0.040516
   147  H    0.096327
   148  H    0.013391
   149  H   -0.033044
   150  H    0.034853
   151  H    0.010049
   152  N   -0.148823
   153  C    0.170874
   154  C    0.073263
   155  O   -0.273346
   156  C   -0.069933
   157  C    0.155672
   158  C    0.101006
   159  O   -0.369793
   160  O   -0.472712
   161  H    0.124005
   162  H   -0.034378
   163  H    0.060581
   164  H    0.007667
   165  H   -0.050539
   166  H   -0.026753
   167  N   -0.175050
   168  C    0.113464
   169  H    0.013631
   170  H    0.024626
   171  H    0.040888
   172  H    0.129217
   173  Ca   1.294227
   174  O   -0.266975
   175  H    0.185738
   176  H    0.158506
 Sum of Mulliken charges =   0.00000

 Dipole moment (field-independent basis, Debye):
    X=            -39.0011    Y=             -2.0774    Z=            -17.4784  Tot=             42.7890
 Quadrupole moment (field-independent basis, Debye-Ang):
   XX=           -633.5955   YY=           -432.9161   ZZ=           -503.6741
   XY=            114.4348   XZ=            105.2248   YZ=              0.8949

 ESP charges:
               1
     1  C   -0.433460
     2  C    0.797517
     3  O   -0.653529
     4  H    0.113854
     5  H    0.131978
     6  H    0.096556
     7  N   -0.708884
     8  C    0.324065
     9  C    0.480166
    10  O   -0.566706
    11  C   -0.392946
    12  C    0.853357
    13  O   -0.704198
    14  O   -0.898895
    15  H    0.336119
    16  H    0.094441
    17  H    0.126909
    18  H    0.088489
    19  N   -0.090434
    20  C   -0.330918
    21  C    0.637415
    22  O   -0.615811
    23  C    0.148864
    24  C   -0.207472
    25  C    0.111659
    26  C    0.019012
    27  N   -0.557139
    28  H    0.095430
    29  H    0.152285
    30  H   -0.040764
    31  H   -0.004745
    32  H    0.109686
    33  H    0.068815
    34  H    0.015888
    35  H    0.016370
    36  H    0.092444
    37  H    0.114473
    38  H    0.368303
    39  H    0.396396
    40  H    0.371823
    41  N   -0.369711
    42  C    0.082719
    43  C    0.398171
    44  O   -0.518972
    45  C   -0.301228
    46  C    0.841551
    47  O   -0.727857
    48  O   -0.766484
    49  H    0.289607
    50  H    0.116371
    51  H    0.081278
    52  H    0.066401
    53  N   -0.219726
    54  C   -0.006493
    55  C    0.369297
    56  O   -0.569401
    57  H    0.103748
    58  H    0.093863
    59  H    0.052802
    60  N    0.136130
    61  C   -0.436735
    62  C    0.540480
    63  O   -0.527002
    64  C    0.015304
    65  C    0.639772
    66  N   -0.828583
    67  O   -0.540998
    68  H    0.063878
    69  H    0.204064
    70  H    0.067652
    71  H    0.030908
    72  H    0.391324
    73  H    0.377845
    74  N   -0.217436
    75  C   -0.426272
    76  C    0.673037
    77  O   -0.596150
    78  H    0.314822
    79  H    0.201616
    80  H    0.145153
    81  N   -0.025587
    82  C    0.222423
    83  C    0.255791
    84  O   -0.386857
    85  C   -0.023472
    86  C    0.082470
    87  C   -0.287989
    88  C   -0.205560
    89  C   -0.146435
    90  C   -0.240677
    91  C    0.291920
    92  O   -0.514260
    93  H   -0.093124
    94  H   -0.023659
    95  H   -0.005871
    96  H   -0.017952
    97  H    0.168796
    98  H    0.151230
    99  H    0.139170
   100  H    0.134107
   101  H    0.387319
   102  N   -0.361755
   103  C   -0.108887
   104  C    0.528458
   105  O   -0.546970
   106  C    0.378408
   107  C   -0.322153
   108  C   -0.415552
   109  C    0.310016
   110  H    0.313146
   111  H    0.137186
   112  H   -0.028356
   113  H    0.054815
   114  H    0.075572
   115  H    0.115391
   116  H    0.104194
   117  H    0.035957
   118  H   -0.169050
   119  H   -0.052882
   120  H   -0.048727
   121  N   -0.482303
   122  C    0.345015
   123  C    0.449468
   124  O   -0.415094
   125  C   -0.172044
   126  O   -0.353604
   127  H    0.257911
   128  H    0.043654
   129  H    0.083436
   130  H    0.048062
   131  H    0.377897
   132  N   -0.639792
   133  C    0.466136
   134  C    0.465059
   135  O   -0.522577
   136  C   -0.349207
   137  H    0.314170
   138  H   -0.008682
   139  H    0.109034
   140  H    0.100859
   141  H    0.068394
   142  N   -0.560666
   143  C    0.375198
   144  C    0.367770
   145  O   -0.511212
   146  C   -0.386964
   147  H    0.281861
   148  H    0.031936
   149  H    0.042305
   150  H    0.127053
   151  H    0.094155
   152  N   -0.440437
   153  C    0.357461
   154  C    0.323036
   155  O   -0.530261
   156  C   -0.394256
   157  C    0.068866
   158  C    0.580248
   159  O   -0.495939
   160  O   -0.743538
   161  H    0.269573
   162  H   -0.041548
   163  H    0.144353
   164  H    0.092177
   165  H   -0.098819
   166  H   -0.010713
   167  N    0.108007
   168  C   -0.236472
   169  H    0.061984
   170  H    0.079209
   171  H    0.112086
   172  H    0.080809
   173  Ca   1.611739
   174  O   -0.853200
   175  H    0.451125
   176  H    0.395534
 Sum of ESP charges =   0.00000

 Normal termination of Gaussian 09 at Mon Sep 16 19:09:23 2019.
