 Gaussian 09, Revision D.01,
 Gaussian 09:  ES64L-G09RevD.01 24-Apr-2013

 ----------------------------------------------------------------------
 #maxdisk=50GB #B3LYP/SVP Density=Current scf=(tight) #IOP(5/87=12)Pop=
 (MK,readradii) iop(6/33=2) iop(6/42=6)
 ----------------------------------------------------------------------

 ------------
 SOL molecule
 ------------
 Symbolic Z-matrix:
 Charge =  0 Multiplicity = 1

                         Standard orientation:
 ---------------------------------------------------------------------
 Center     Atomic      Atomic             Coordinates (Angstroms)
 Number     Number       Type             X           Y           Z
 ---------------------------------------------------------------------
      1          6           0        2.264207    2.915789    5.225216
      2          6           0        1.620411    2.329841    3.975900
      3          8           0        2.389658    2.239945    3.027650
      4          1           0        2.076458    3.988384    5.260938
      5          1           0        1.837018    2.443696    6.109567
      6          1           0        3.338657    2.736201    5.199540
      7          7           0        0.298224    2.155870    3.865645
      8          6           0       -0.376648    2.069871    2.590124
      9          6           0       -0.570197    3.487603    2.063748
     10          8           0       -1.371534    4.228449    2.631820
     11          6           0       -1.688304    1.306952    2.740502
     12          6           0       -2.458078    1.080671    1.450330
     13          8           0       -1.974291    1.506706    0.380309
     14          8           0       -3.562554    0.491634    1.535578
     15          1           0       -0.295796    2.246292    4.677165
     16          1           0        0.218675    1.486795    1.880044
     17          1           0       -2.208969    1.766437    3.583818
     18          1           0       -1.432676    0.304117    3.110333
     19          7           0        0.132345    3.866815    1.001094
     20          6           0        0.120650    5.219592    0.485189
     21          6           0       -1.171493    5.484389   -0.280413
     22          8           0       -1.748232    6.549359   -0.045656
     23          6           0        1.339360    5.468235   -0.391123
     24          6           0        1.625622    6.969909   -0.297149
     25          6           0        2.932451    7.370763   -0.976570
     26          6           0        3.401868    8.814422   -1.138112
     27          7           0        3.336328    9.481092    0.172253
     28          1           0        0.758834    3.252943    0.513680
     29          1           0        0.168813    5.960705    1.295024
     30          1           0        1.184306    5.159995   -1.424780
     31          1           0        2.202276    4.961988    0.047270
     32          1           0        1.820606    7.220787    0.747237
     33          1           0        0.764968    7.504275   -0.705473
     34          1           0        2.983941    6.944815   -1.982212
     35          1           0        3.765286    6.879899   -0.483784
     36          1           0        2.680690    9.355066   -1.752365
     37          1           0        4.406527    8.983153   -1.514528
     38          1           0        3.886198   10.319300    0.071998
     39          1           0        2.401237    9.572417    0.543014
     40          1           0        3.874720    8.959180    0.849263
     41          7           0       -1.685990    4.602323   -1.142824
     42          6           0       -2.907840    4.837130   -1.892324
     43          6           0       -4.148272    4.500649   -1.078562
     44          8           0       -5.071894    5.285717   -1.254326
     45          6           0       -2.860641    4.185470   -3.268555
     46          6           0       -3.012722    2.692752   -3.068394
     47          8           0       -2.137668    2.051309   -2.437973
     48          8           0       -4.091206    2.128397   -3.367353
     49          1           0       -1.234465    3.722914   -1.298911
     50          1           0       -3.003945    5.870133   -2.219233
     51          1           0       -1.879119    4.436998   -3.694053
     52          1           0       -3.652867    4.571600   -3.922528
     53          7           0       -4.166046    3.531483   -0.154278
     54          6           0       -5.270810    3.239402    0.727473
     55          6           0       -6.139619    2.111690    0.177986
     56          8           0       -7.315998    2.079183    0.533056
     57          1           0       -3.308554    3.012914   -0.013238
     58          1           0       -5.997452    4.017292    0.982578
     59          1           0       -4.803109    2.837607    1.620063
     60          7           0       -5.568728    1.220064   -0.627488
     61          6           0       -6.246263    0.030098   -1.103226
     62          6           0       -6.457891   -1.037830   -0.032085
     63          8           0       -7.164596   -2.019055   -0.215288
     64          6           0       -5.606549   -0.574498   -2.345252
     65          6           0       -4.112602   -0.875712   -2.292425
     66          7           0       -3.595640   -1.596737   -3.289959
     67          8           0       -3.496092   -0.661099   -1.249182
     68          1           0       -4.610943    1.378741   -0.911159
     69          1           0       -7.245447    0.316296   -1.418700
     70          1           0       -5.881506    0.018113   -3.214626
     71          1           0       -5.988885   -1.593609   -2.437629
     72          1           0       -4.140742   -1.907598   -4.078964
     73          1           0       -2.649346   -1.939975   -3.259703
     74          7           0       -5.931194   -0.821750    1.176178
     75          6           0       -5.964833   -1.840620    2.201347
     76          6           0       -4.749410   -2.750257    2.218889
     77          8           0       -4.856409   -3.709088    2.980594
     78          1           0       -5.215150   -0.140192    1.362885
     79          1           0       -6.833084   -2.498417    2.083692
     80          1           0       -6.013722   -1.445485    3.218981
     81          7           0       -3.702424   -2.435884    1.456991
     82          6           0       -2.640763   -3.377602    1.166916
     83          6           0       -1.335240   -2.599282    1.065784
     84          8           0       -1.271328   -1.541495    0.434276
     85          6           0       -2.889528   -4.070708   -0.168232
     86          6           0       -4.206511   -4.761204   -0.431046
     87          6           0       -4.915385   -4.616121   -1.630774
     88          6           0       -4.785956   -5.512023    0.600707
     89          6           0       -6.153113   -5.238381   -1.777128
     90          6           0       -6.060828   -6.079232    0.495459
     91          6           0       -6.732344   -6.011541   -0.744454
     92          8           0       -7.993548   -6.492070   -0.921812
     93          1           0       -3.647844   -1.507533    1.053648
     94          1           0       -2.489832   -4.099730    1.963879
     95          1           0       -2.160222   -4.884809   -0.216742
     96          1           0       -2.568652   -3.393281   -0.965560
     97          1           0       -4.565736   -4.057307   -2.488954
     98          1           0       -4.277030   -5.579832    1.550336
     99          1           0       -6.638738   -5.103532   -2.734669
    100          1           0       -6.542332   -6.624279    1.284178
    101          1           0       -8.340985   -6.850585   -0.091479
    102          7           0       -0.306212   -3.256781    1.596535
    103          6           0        1.064508   -2.791184    1.603355
    104          6           0        1.853346   -3.741958    0.723716
    105          8           0        2.101064   -4.903879    1.036723
    106          6           0        1.588840   -2.758461    3.033147
    107          6           0        0.885490   -1.599616    3.728400
    108          6           0        3.117692   -2.738790    3.152416
    109          6           0        1.312090   -1.365902    5.170479
    110          1           0       -0.589642   -4.093638    2.101151
    111          1           0        1.115465   -1.822004    1.105567
    112          1           0        1.283902   -3.705496    3.476133
    113          1           0       -0.197798   -1.711776    3.758526
    114          1           0        1.150741   -0.668404    3.236684
    115          1           0        3.473469   -2.470452    4.148417
    116          1           0        3.573118   -3.642072    2.742331
    117          1           0        3.441555   -1.868389    2.583456
    118          1           0        0.747419   -0.571716    5.674179
    119          1           0        1.103845   -2.286287    5.694336
    120          1           0        2.370230   -1.105466    5.159890
    121          7           0        2.243392   -3.195045   -0.432334
    122          6           0        3.163671   -3.807136   -1.379187
    123          6           0        4.588918   -3.906579   -0.868028
    124          8           0        4.865250   -3.280080    0.148210
    125          6           0        3.034800   -3.011407   -2.675647
    126          8           0        3.289795   -1.634174   -2.552740
    127          1           0        2.198963   -2.193981   -0.460564
    128          1           0        2.794627   -4.796573   -1.623363
    129          1           0        2.072950   -3.206658   -3.168922
    130          1           0        3.689058   -3.426109   -3.441197
    131          1           0        2.535991   -1.238414   -2.114500
    132          7           0        5.482833   -4.529865   -1.646122
    133          6           0        6.919584   -4.415511   -1.488740
    134          6           0        7.419951   -2.980308   -1.428538
    135          8           0        8.049791   -2.620083   -0.439326
    136          6           0        7.482210   -5.144968   -2.701317
    137          1           0        5.175526   -5.071268   -2.436973
    138          1           0        7.287921   -4.948731   -0.612097
    139          1           0        8.570418   -5.137190   -2.767227
    140          1           0        7.301929   -6.222087   -2.728053
    141          1           0        7.066070   -4.597534   -3.547747
    142          7           0        7.156534   -2.128454   -2.418163
    143          6           0        7.652281   -0.763741   -2.438022
    144          6           0        7.261295    0.052516   -1.223092
    145          8           0        7.814308    1.092552   -0.880452
    146          6           0        7.182205   -0.141995   -3.748960
    147          1           0        6.616633   -2.500941   -3.183186
    148          1           0        8.748263   -0.797559   -2.429036
    149          1           0        6.108848    0.006235   -3.593941
    150          1           0        7.727120    0.755148   -4.046957
    151          1           0        7.354010   -0.840952   -4.564891
    152          7           0        6.107793   -0.297372   -0.646108
    153          6           0        5.518458    0.383534    0.480858
    154          6           0        6.187963   -0.144071    1.748610
    155          8           0        6.369597    0.678416    2.655210
    156          6           0        4.001559    0.270656    0.378013
    157          6           0        3.355067    1.206955   -0.645117
    158          6           0        1.903396    0.801003   -0.814692
    159          8           0        1.045835    1.709377   -0.838037
    160          8           0        1.541250   -0.377941   -0.988589
    161          1           0        5.673200   -1.152427   -0.981086
    162          1           0        5.784060    1.448392    0.515961
    163          1           0        3.562734    0.530290    1.348849
    164          1           0        3.757242   -0.757972    0.131168
    165          1           0        3.774877    1.080196   -1.645662
    166          1           0        3.501919    2.242054   -0.327148
    167          7           0        6.467396   -1.443859    1.858918
    168          6           0        7.153441   -2.039626    2.989628
    169          1           0        7.980840   -2.652075    2.630757
    170          1           0        7.539153   -1.252718    3.637113
    171          1           0        6.457955   -2.663757    3.549814
    172          1           0        6.285558   -2.077225    1.088085
    173         20           0       -0.963967    0.172487   -1.491002
    174          8           0       -0.069037    0.627768   -4.009438
    175          1           0        0.694282    0.319454   -4.500239
    176          1           0       -0.749717    0.741659   -4.669970
 ---------------------------------------------------------------------

 SCF Done:  E(RB3LYP) =  -5333.59452819     A.U. after   18 cycles

 The electronic state is 1-A.
 Alpha  occ. eigenvalues -- -145.37022 -19.19033 -19.14812 -19.13879 -19.13259
 Alpha  occ. eigenvalues --  -19.12210 -19.11973 -19.11387 -19.10814 -19.09898
 Alpha  occ. eigenvalues --  -19.09400 -19.08050 -19.07598 -19.06600 -19.06283
 Alpha  occ. eigenvalues --  -19.05131 -19.04997 -19.04909 -19.04132 -19.03651
 Alpha  occ. eigenvalues --  -19.03560 -19.02729 -19.02308 -19.01731 -15.42822
 Alpha  occ. eigenvalues --  -14.58880 -14.39471 -14.38241 -14.37425 -14.37195
 Alpha  occ. eigenvalues --  -14.35565 -14.34130 -14.33487 -14.32621 -14.31810
 Alpha  occ. eigenvalues --  -14.31451 -14.31237 -14.29031 -14.28468 -14.28027
 Alpha  occ. eigenvalues --  -12.56444 -12.56386 -12.56364 -10.36086 -10.31551
 Alpha  occ. eigenvalues --  -10.30238 -10.29935 -10.29479 -10.29144 -10.28127
 Alpha  occ. eigenvalues --  -10.27707 -10.27035 -10.26820 -10.26766 -10.26471
 Alpha  occ. eigenvalues --  -10.25446 -10.25252 -10.25156 -10.25138 -10.24659
 Alpha  occ. eigenvalues --  -10.24241 -10.24162 -10.23535 -10.22952 -10.22775
 Alpha  occ. eigenvalues --  -10.22504 -10.22434 -10.22422 -10.22297 -10.22177
 Alpha  occ. eigenvalues --  -10.22163 -10.21892 -10.20931 -10.20920 -10.20481
 Alpha  occ. eigenvalues --  -10.20185 -10.18856 -10.18812 -10.18711 -10.18611
 Alpha  occ. eigenvalues --  -10.18477 -10.18319 -10.17862 -10.17541 -10.17288
 Alpha  occ. eigenvalues --  -10.16955 -10.16817 -10.16801 -10.16700 -10.16325
 Alpha  occ. eigenvalues --  -10.16282 -10.16184 -10.16181 -10.16025 -10.15930
 Alpha  occ. eigenvalues --  -10.15631 -10.15202  -1.79892  -1.14632  -1.08028
 Alpha  occ. eigenvalues --   -1.07489  -1.07298  -1.06589  -1.05660  -1.04957
 Alpha  occ. eigenvalues --   -1.04939  -1.04525  -1.03604  -1.03506  -1.02498
 Alpha  occ. eigenvalues --   -1.02313  -1.01324  -1.01168  -1.00031  -0.99084
 Alpha  occ. eigenvalues --   -0.98821  -0.98103  -0.97805  -0.97732  -0.97011
 Alpha  occ. eigenvalues --   -0.96573  -0.96149  -0.95158  -0.95155  -0.94673
 Alpha  occ. eigenvalues --   -0.94369  -0.92769  -0.91821  -0.90676  -0.90489
 Alpha  occ. eigenvalues --   -0.90381  -0.89547  -0.89131  -0.88948  -0.88382
 Alpha  occ. eigenvalues --   -0.87378  -0.86930  -0.86501  -0.85443  -0.84539
 Alpha  occ. eigenvalues --   -0.83112  -0.82456  -0.82276  -0.81379  -0.79350
 Alpha  occ. eigenvalues --   -0.78159  -0.77605  -0.77411  -0.76958  -0.75484
 Alpha  occ. eigenvalues --   -0.74950  -0.74525  -0.74025  -0.73989  -0.71798
 Alpha  occ. eigenvalues --   -0.71748  -0.71704  -0.71210  -0.70813  -0.69436
 Alpha  occ. eigenvalues --   -0.69377  -0.68446  -0.68312  -0.67674  -0.67045
 Alpha  occ. eigenvalues --   -0.66895  -0.65987  -0.64717  -0.64563  -0.64407
 Alpha  occ. eigenvalues --   -0.63450  -0.63087  -0.62095  -0.61691  -0.61465
 Alpha  occ. eigenvalues --   -0.61063  -0.60647  -0.60430  -0.59759  -0.59620
 Alpha  occ. eigenvalues --   -0.59448  -0.58766  -0.58149  -0.57840  -0.56980
 Alpha  occ. eigenvalues --   -0.56942  -0.56807  -0.56717  -0.56118  -0.55943
 Alpha  occ. eigenvalues --   -0.55751  -0.55326  -0.55239  -0.55072  -0.54781
 Alpha  occ. eigenvalues --   -0.53987  -0.53898  -0.53298  -0.53074  -0.52576
 Alpha  occ. eigenvalues --   -0.52418  -0.52309  -0.52256  -0.52217  -0.51369
 Alpha  occ. eigenvalues --   -0.50904  -0.50527  -0.50177  -0.50044  -0.49794
 Alpha  occ. eigenvalues --   -0.49367  -0.49342  -0.49039  -0.48415  -0.48323
 Alpha  occ. eigenvalues --   -0.48136  -0.47821  -0.47505  -0.47366  -0.47102
 Alpha  occ. eigenvalues --   -0.47041  -0.46980  -0.46701  -0.46550  -0.46484
 Alpha  occ. eigenvalues --   -0.46167  -0.45448  -0.45336  -0.45193  -0.45092
 Alpha  occ. eigenvalues --   -0.44968  -0.44759  -0.44686  -0.44562  -0.44146
 Alpha  occ. eigenvalues --   -0.44006  -0.43877  -0.43789  -0.43546  -0.43432
 Alpha  occ. eigenvalues --   -0.43250  -0.43052  -0.42685  -0.42502  -0.42472
 Alpha  occ. eigenvalues --   -0.42269  -0.42189  -0.42050  -0.41821  -0.41683
 Alpha  occ. eigenvalues --   -0.41421  -0.41367  -0.41280  -0.41053  -0.41008
 Alpha  occ. eigenvalues --   -0.40999  -0.40619  -0.40596  -0.40439  -0.40289
 Alpha  occ. eigenvalues --   -0.39931  -0.39793  -0.39739  -0.39658  -0.39641
 Alpha  occ. eigenvalues --   -0.39462  -0.39351  -0.39094  -0.38792  -0.38639
 Alpha  occ. eigenvalues --   -0.38604  -0.38544  -0.38470  -0.38349  -0.38276
 Alpha  occ. eigenvalues --   -0.38121  -0.37920  -0.37818  -0.37747  -0.37543
 Alpha  occ. eigenvalues --   -0.37447  -0.37412  -0.37021  -0.36957  -0.36768
 Alpha  occ. eigenvalues --   -0.36582  -0.36492  -0.36158  -0.35894  -0.35829
 Alpha  occ. eigenvalues --   -0.35657  -0.35612  -0.35197  -0.35080  -0.35000
 Alpha  occ. eigenvalues --   -0.34832  -0.34669  -0.34466  -0.34349  -0.34261
 Alpha  occ. eigenvalues --   -0.34011  -0.33890  -0.33619  -0.33474  -0.33174
 Alpha  occ. eigenvalues --   -0.33168  -0.32467  -0.32261  -0.32218  -0.32165
 Alpha  occ. eigenvalues --   -0.31691  -0.31471  -0.31446  -0.31089  -0.30928
 Alpha  occ. eigenvalues --   -0.30851  -0.30618  -0.30264  -0.30130  -0.29582
 Alpha  occ. eigenvalues --   -0.29276  -0.29125  -0.29080  -0.28883  -0.28628
 Alpha  occ. eigenvalues --   -0.28417  -0.27785  -0.27104  -0.26886  -0.26262
 Alpha  occ. eigenvalues --   -0.26077  -0.25753  -0.25331  -0.24846  -0.24714
 Alpha  occ. eigenvalues --   -0.23914  -0.23776  -0.23474  -0.23257  -0.23045
 Alpha  occ. eigenvalues --   -0.22700  -0.22234  -0.21841  -0.21807  -0.21744
 Alpha  occ. eigenvalues --   -0.21542  -0.21362  -0.21110  -0.20940  -0.20427
 Alpha  occ. eigenvalues --   -0.20402  -0.19887  -0.19458  -0.18612  -0.18242
 Alpha  occ. eigenvalues --   -0.18039  -0.17526  -0.17016
 Alpha virt. eigenvalues --   -0.11166  -0.05224  -0.04610  -0.04369  -0.02035
 Alpha virt. eigenvalues --   -0.01555  -0.00554  -0.00526  -0.00293   0.01250
 Alpha virt. eigenvalues --    0.01425   0.01599   0.01921   0.02218   0.02315

 Mulliken charges:
               1
     1  C    0.058018
     2  C    0.035786
     3  O   -0.295161
     4  H    0.027597
     5  H    0.001314
     6  H    0.041250
     7  N   -0.130927
     8  C    0.105557
     9  C    0.080045
    10  O   -0.287579
    11  C    0.054293
    12  C    0.213323
    13  O   -0.471472
    14  O   -0.391831
    15  H    0.119338
    16  H   -0.005167
    17  H    0.006980
    18  H   -0.001779
    19  N   -0.093723
    20  C    0.115984
    21  C    0.051119
    22  O   -0.288032
    23  C    0.056906
    24  C   -0.012829
    25  C   -0.047904
    26  C    0.055450
    27  N    0.065110
    28  H    0.135854
    29  H   -0.011173
    30  H    0.023931
    31  H    0.018386
    32  H   -0.025548
    33  H    0.040897
    34  H    0.044650
    35  H    0.020594
    36  H    0.070916
    37  H    0.070975
    38  H    0.187630
    39  H    0.212166
    40  H    0.182219
    41  N   -0.117797
    42  C    0.084214
    43  C    0.081865
    44  O   -0.279412
    45  C    0.135829
    46  C    0.073200
    47  O   -0.500902
    48  O   -0.364025
    49  H    0.130504
    50  H   -0.000637
    51  H   -0.033075
    52  H    0.009474
    53  N   -0.189492
    54  C    0.254352
    55  C   -0.010240
    56  O   -0.294528
    57  H    0.161766
    58  H    0.026567
    59  H    0.017671
    60  N   -0.135193
    61  C    0.182774
    62  C    0.037413
    63  O   -0.286050
    64  C    0.051557
    65  C    0.085645
    66  N   -0.049397
    67  O   -0.317753
    68  H    0.159416
    69  H    0.013991
    70  H    0.050043
    71  H    0.024313
    72  H    0.134881
    73  H    0.094856
    74  N   -0.148591
    75  C    0.208157
    76  C    0.023986
    77  O   -0.317270
    78  H    0.149194
    79  H    0.034913
    80  H    0.017684
    81  N   -0.149898
    82  C    0.110213
    83  C    0.097019
    84  O   -0.365116
    85  C    0.195179
    86  C    0.009072
    87  C   -0.001203
    88  C    0.028940
    89  C   -0.007856
    90  C   -0.035300
    91  C    0.165842
    92  O   -0.199922
    93  H    0.185979
    94  H   -0.012946
    95  H   -0.015033
    96  H   -0.065865
    97  H   -0.092718
    98  H   -0.020355
    99  H   -0.040590
   100  H   -0.049788
   101  H    0.176685
   102  N   -0.109240
   103  C    0.139658
   104  C    0.078518
   105  O   -0.279545
   106  C   -0.087502
   107  C   -0.029671
   108  C    0.068478
   109  C    0.039869
   110  H    0.142031
   111  H    0.011878
   112  H   -0.018294
   113  H    0.015875
   114  H    0.017891
   115  H    0.008932
   116  H    0.039137
   117  H   -0.001578
   118  H   -0.003719
   119  H   -0.003379
   120  H    0.022200
   121  N   -0.151859
   122  C    0.099590
   123  C    0.128292
   124  O   -0.260536
   125  C    0.231635
   126  O   -0.330833
   127  H    0.139182
   128  H    0.007131
   129  H   -0.010792
   130  H   -0.038122
   131  H    0.168912
   132  N   -0.120109
   133  C    0.127065
   134  C    0.025724
   135  O   -0.244903
   136  C   -0.000311
   137  H    0.118667
   138  H    0.023215
   139  H    0.035996
   140  H    0.038040
   141  H   -0.005636
   142  N   -0.143745
   143  C    0.100550
   144  C    0.078007
   145  O   -0.272496
   146  C    0.043985
   147  H    0.113695
   148  H    0.019528
   149  H    0.023589
   150  H    0.036208
   151  H    0.004071
   152  N   -0.172724
   153  C    0.135311
   154  C    0.062728
   155  O   -0.294972
   156  C   -0.024008
   157  C    0.128553
   158  C    0.161166
   159  O   -0.395746
   160  O   -0.471400
   161  H    0.125202
   162  H    0.000927
   163  H    0.049485
   164  H   -0.017766
   165  H    0.002010
   166  H   -0.002919
   167  N   -0.162070
   168  C    0.127760
   169  H    0.016784
   170  H    0.030715
   171  H    0.012312
   172  H    0.134513
   173  Ca   1.289957
   174  O   -0.277911
   175  H    0.174769
   176  H    0.186638
 Sum of Mulliken charges =   0.00000

 Dipole moment (field-independent basis, Debye):
    X=             31.7036    Y=             15.8199    Z=            -14.1230  Tot=             38.1425
 Quadrupole moment (field-independent basis, Debye-Ang):
   XX=           -720.8340   YY=           -265.9231   ZZ=           -504.2036
   XY=            145.5618   XZ=            -51.8146   YZ=             34.2692

 ESP charges:
               1
     1  C   -0.427771
     2  C    0.797959
     3  O   -0.608180
     4  H    0.116489
     5  H    0.072715
     6  H    0.136894
     7  N   -0.707842
     8  C    0.150959
     9  C    0.546924
    10  O   -0.545043
    11  C   -0.427504
    12  C    0.972460
    13  O   -0.643467
    14  O   -0.778270
    15  H    0.370909
    16  H   -0.013066
    17  H    0.122605
    18  H    0.086551
    19  N   -0.301976
    20  C    0.124397
    21  C    0.492647
    22  O   -0.574185
    23  C   -0.165188
    24  C    0.033208
    25  C    0.028189
    26  C   -0.019338
    27  N   -0.273743
    28  H    0.220798
    29  H    0.016980
    30  H    0.068623
    31  H    0.067964
    32  H    0.005322
    33  H    0.027841
    34  H    0.028674
    35  H    0.010967
    36  H    0.085588
    37  H    0.095103
    38  H    0.311051
    39  H    0.297826
    40  H    0.304588
    41  N   -0.402219
    42  C    0.201971
    43  C    0.483417
    44  O   -0.564876
    45  C   -0.296838
    46  C    0.690613
    47  O   -0.727762
    48  O   -0.679217
    49  H    0.242527
    50  H    0.052235
    51  H    0.048916
    52  H    0.096428
    53  N   -0.126577
    54  C   -0.174935
    55  C    0.494844
    56  O   -0.574228
    57  H    0.102185
    58  H    0.121852
    59  H    0.078154
    60  N   -0.073849
    61  C   -0.145755
    62  C    0.458458
    63  O   -0.492485
    64  C   -0.356537
    65  C    0.667343
    66  N   -0.896082
    67  O   -0.201431
    68  H    0.071509
    69  H    0.143574
    70  H    0.169587
    71  H    0.105877
    72  H    0.397111
    73  H    0.356445
    74  N   -0.344935
    75  C   -0.043903
    76  C    0.757617
    77  O   -0.627282
    78  H    0.309445
    79  H    0.087239
    80  H    0.037037
    81  N   -0.683169
    82  C    0.325873
    83  C    0.756261
    84  O   -0.654489
    85  C   -0.063104
    86  C    0.267412
    87  C   -0.407227
    88  C   -0.381864
    89  C   -0.052643
    90  C   -0.086837
    91  C    0.193874
    92  O   -0.516455
    93  H    0.257926
    94  H   -0.038616
    95  H   -0.011570
    96  H   -0.038038
    97  H    0.165833
    98  H    0.204990
    99  H    0.117469
   100  H    0.106722
   101  H    0.407010
   102  N   -0.886045
   103  C    0.029168
   104  C    0.833461
   105  O   -0.588096
   106  C    0.007641
   107  C    0.293307
   108  C   -0.296673
   109  C   -0.427265
   110  H    0.419085
   111  H    0.052718
   112  H    0.031633
   113  H   -0.003562
   114  H    0.027743
   115  H    0.085318
   116  H    0.102893
   117  H    0.061000
   118  H    0.096815
   119  H    0.080345
   120  H    0.102019
   121  N   -0.508565
   122  C   -0.144184
   123  C    0.540494
   124  O   -0.407818
   125  C    0.275038
   126  O   -0.593659
   127  H    0.250096
   128  H    0.102694
   129  H   -0.002476
   130  H    0.005294
   131  H    0.353398
   132  N   -0.489372
   133  C    0.194378
   134  C    0.457250
   135  O   -0.512467
   136  C   -0.269086
   137  H    0.280663
   138  H    0.064904
   139  H    0.097728
   140  H    0.107901
   141  H    0.021357
   142  N   -0.443452
   143  C    0.090182
   144  C    0.334870
   145  O   -0.517993
   146  C   -0.260738
   147  H    0.328477
   148  H    0.093132
   149  H    0.052117
   150  H    0.113218
   151  H    0.069554
   152  N    0.078700
   153  C   -0.382121
   154  C    0.536071
   155  O   -0.570316
   156  C    0.607142
   157  C   -0.544733
   158  C    0.912018
   159  O   -0.726242
   160  O   -0.604647
   161  H    0.110914
   162  H    0.140986
   163  H   -0.028354
   164  H   -0.360796
   165  H    0.105685
   166  H    0.124586
   167  N   -0.120464
   168  C   -0.154344
   169  H    0.068703
   170  H    0.089554
   171  H    0.051859
   172  H    0.147230
   173  Ca   1.370752
   174  O   -0.806413
   175  H    0.408193
   176  H    0.418104
 Sum of ESP charges =   0.00000

 Normal termination of Gaussian 09 at Mon Sep 16 17:22:25 2019.
