 Gaussian 09, Revision D.01,
 Gaussian 09:  ES64L-G09RevD.01 24-Apr-2013

 ----------------------------------------------------------------------
 #maxdisk=50GB #B3LYP/SVP Density=Current scf=(tight) #IOP(5/87=12)Pop=
 (MK,readradii) iop(6/33=2) iop(6/42=6)
 ----------------------------------------------------------------------

 ------------
 SOL molecule
 ------------
 Symbolic Z-matrix:
 Charge =  0 Multiplicity = 1

                         Standard orientation:
 ---------------------------------------------------------------------
 Center     Atomic      Atomic             Coordinates (Angstroms)
 Number     Number       Type             X           Y           Z
 ---------------------------------------------------------------------
      1          6           0        2.059782    2.950780    5.440370
      2          6           0        1.635919    2.358770    4.101728
      3          8           0        2.497095    2.172078    3.246087
      4          1           0        3.104950    2.707334    5.629378
      5          1           0        1.938828    4.033803    5.413916
      6          1           0        1.440295    2.534521    6.234494
      7          7           0        0.385352    1.961826    3.867807
      8          6           0       -0.280055    2.182680    2.602715
      9          6           0       -0.179838    3.612022    2.079900
     10          8           0       -0.488674    4.536913    2.819425
     11          6           0       -1.710014    1.674410    2.704093
     12          6           0       -2.557685    1.764200    1.440529
     13          8           0       -1.988395    1.918059    0.345250
     14          8           0       -3.806930    1.728761    1.482131
     15          1           0       -0.262323    2.032250    4.641601
     16          1           0        0.193984    1.466673    1.920424
     17          1           0       -2.134813    2.339600    3.461171
     18          1           0       -1.660417    0.632354    3.007672
     19          7           0        0.201284    3.703424    0.799981
     20          6           0        0.524598    4.988283    0.228663
     21          6           0       -0.443200    5.362847   -0.885324
     22          8           0       -0.673239    6.551261   -1.127098
     23          6           0        1.948536    5.090724   -0.322343
     24          6           0        3.014436    5.140959    0.762983
     25          6           0        4.334603    5.479200    0.075486
     26          6           0        5.606822    5.540314    0.918709
     27          7           0        5.649899    6.695092    1.835459
     28          1           0        0.369481    2.826292    0.339274
     29          1           0        0.508350    5.764527    0.998131
     30          1           0        2.062551    5.974571   -0.962823
     31          1           0        2.184571    4.216776   -0.925836
     32          1           0        3.099731    4.170340    1.242695
     33          1           0        2.685492    5.803185    1.573941
     34          1           0        4.245280    6.385431   -0.517530
     35          1           0        4.512191    4.807432   -0.759971
     36          1           0        6.415484    5.767225    0.218226
     37          1           0        5.786492    4.638096    1.507115
     38          1           0        6.557318    6.998056    2.160580
     39          1           0        5.269313    7.533848    1.419115
     40          1           0        5.038603    6.564052    2.626247
     41          7           0       -1.172358    4.436111   -1.513647
     42          6           0       -2.190224    4.736801   -2.501794
     43          6           0       -3.616986    4.457042   -2.052031
     44          8           0       -4.633550    4.654432   -2.714099
     45          6           0       -1.845679    4.176053   -3.873162
     46          6           0       -1.602188    2.670981   -3.795239
     47          8           0       -1.429227    2.009277   -4.842776
     48          8           0       -1.633680    1.997635   -2.742475
     49          1           0       -0.950676    3.478990   -1.277690
     50          1           0       -2.208554    5.811555   -2.684737
     51          1           0       -0.963813    4.683244   -4.261580
     52          1           0       -2.701584    4.462005   -4.476534
     53          7           0       -3.779502    4.268047   -0.737661
     54          6           0       -4.940400    4.284138    0.125852
     55          6           0       -5.990473    3.222688   -0.206218
     56          8           0       -7.146421    3.590179   -0.024463
     57          1           0       -3.024907    3.870433   -0.199619
     58          1           0       -5.375426    5.281531    0.147311
     59          1           0       -4.676603    4.031468    1.149702
     60          7           0       -5.604433    2.073622   -0.755782
     61          6           0       -6.466113    0.948984   -1.051581
     62          6           0       -6.693990   -0.096330    0.036854
     63          8           0       -7.389190   -1.070625   -0.227622
     64          6           0       -6.094366    0.329351   -2.396631
     65          6           0       -4.738194   -0.351359   -2.289242
     66          7           0       -4.364980   -1.114312   -3.318131
     67          8           0       -3.948493   -0.210232   -1.353424
     68          1           0       -4.606740    1.969336   -0.903205
     69          1           0       -7.497002    1.275169   -1.144697
     70          1           0       -6.146353    1.091593   -3.164214
     71          1           0       -6.796172   -0.479431   -2.603126
     72          1           0       -4.917596   -1.127781   -4.160173
     73          1           0       -3.470082   -1.583684   -3.325035
     74          7           0       -6.176071    0.102472    1.249635
     75          6           0       -6.214481   -0.762932    2.411788
     76          6           0       -5.220190   -1.917259    2.498465
     77          8           0       -5.537594   -2.945934    3.104916
     78          1           0       -5.550010    0.888070    1.296364
     79          1           0       -7.212941   -1.157776    2.586937
     80          1           0       -6.117417   -0.129100    3.304053
     81          7           0       -4.093487   -1.832100    1.790447
     82          6           0       -3.217791   -2.962683    1.547471
     83          6           0       -1.787025   -2.505715    1.330475
     84          8           0       -1.504564   -1.410114    0.856688
     85          6           0       -3.696265   -3.748888    0.336131
     86          6           0       -5.021327   -4.439526    0.187031
     87          6           0       -5.950223   -3.729037   -0.587926
     88          6           0       -5.308002   -5.735488    0.642443
     89          6           0       -7.239035   -4.265111   -0.694646
     90          6           0       -6.588601   -6.286842    0.466448
     91          6           0       -7.574515   -5.544690   -0.205328
     92          8           0       -8.820230   -6.077345   -0.375538
     93          1           0       -3.957509   -0.994573    1.236408
     94          1           0       -3.261719   -3.636335    2.399623
     95          1           0       -2.970911   -4.560291    0.244551
     96          1           0       -3.477061   -3.154642   -0.555677
     97          1           0       -5.829707   -2.699435   -0.909011
     98          1           0       -4.523955   -6.341849    1.055356
     99          1           0       -8.015616   -3.708356   -1.199665
    100          1           0       -6.804464   -7.293525    0.804374
    101          1           0       -8.809658   -6.995259   -0.099637
    102          7           0       -0.816498   -3.358277    1.691329
    103          6           0        0.600288   -3.069412    1.618020
    104          6           0        1.263391   -3.936732    0.561351
    105          8           0        1.082897   -5.148813    0.589340
    106          6           0        1.288643   -2.999080    2.978947
    107          6           0        0.887746   -1.696415    3.674752
    108          6           0        2.796833   -3.216723    2.954579
    109          6           0        1.638207   -1.490276    4.982772
    110          1           0       -1.052157   -4.270053    2.049280
    111          1           0        0.576547   -2.046113    1.219153
    112          1           0        0.980452   -3.854327    3.591541
    113          1           0       -0.177874   -1.789717    3.902455
    114          1           0        1.098019   -0.841183    3.030344
    115          1           0        3.093032   -3.279224    3.998064
    116          1           0        3.144977   -4.120153    2.461822
    117          1           0        3.320999   -2.396379    2.466229
    118          1           0        2.556138   -0.964493    4.731662
    119          1           0        1.026697   -0.846090    5.619859
    120          1           0        1.797865   -2.424777    5.519630
    121          7           0        2.026705   -3.342626   -0.361194
    122          6           0        2.869441   -4.016190   -1.329599
    123          6           0        4.353425   -3.933611   -1.002995
    124          8           0        4.734796   -3.162745   -0.124575
    125          6           0        2.474222   -3.574416   -2.725428
    126          8           0        2.787703   -2.207649   -2.810747
    127          1           0        2.003025   -2.336892   -0.427057
    128          1           0        2.590371   -5.068204   -1.293749
    129          1           0        1.441640   -3.881680   -2.904208
    130          1           0        3.066541   -4.162172   -3.429204
    131          1           0        2.001768   -1.761000   -2.488549
    132          7           0        5.202924   -4.559872   -1.819358
    133          6           0        6.639022   -4.430629   -1.631423
    134          6           0        7.183258   -3.017940   -1.666315
    135          8           0        8.012735   -2.641839   -0.831021
    136          6           0        7.480639   -5.410462   -2.432802
    137          1           0        4.928318   -5.104451   -2.620998
    138          1           0        6.732834   -4.738060   -0.581002
    139          1           0        6.990026   -6.388836   -2.465701
    140          1           0        7.588901   -4.926857   -3.404299
    141          1           0        8.508508   -5.508289   -2.091607
    142          7           0        6.777367   -2.145362   -2.592576
    143          6           0        7.260049   -0.785353   -2.708313
    144          6           0        6.929266    0.105122   -1.517751
    145          8           0        7.490700    1.188002   -1.350826
    146          6           0        6.693238   -0.259760   -4.031822
    147          1           0        6.025002   -2.362415   -3.231509
    148          1           0        8.328734   -0.789177   -2.917115
    149          1           0        7.160834    0.697830   -4.207821
    150          1           0        6.883358   -0.989654   -4.824102
    151          1           0        5.637965   -0.022161   -3.898978
    152          7           0        5.934142   -0.313199   -0.733638
    153          6           0        5.497978    0.338054    0.482763
    154          6           0        6.296210   -0.265719    1.631537
    155          8           0        6.597703    0.440029    2.579810
    156          6           0        4.001934    0.085611    0.639688
    157          6           0        3.312425    0.584231   -0.617355
    158          6           0        1.806241    0.312853   -0.545509
    159          8           0        0.988222    1.251693   -0.445389
    160          8           0        1.315149   -0.762321   -0.954081
    161          1           0        5.409309   -1.145563   -0.963031
    162          1           0        5.655777    1.413333    0.411526
    163          1           0        3.585781    0.701087    1.436184
    164          1           0        3.865022   -0.990274    0.794372
    165          1           0        3.783973    0.224469   -1.537308
    166          1           0        3.466369    1.659140   -0.525850
    167          7           0        6.578730   -1.570142    1.586104
    168          6           0        7.258995   -2.233408    2.670501
    169          1           0        7.933749   -2.988759    2.267236
    170          1           0        7.832142   -1.502851    3.241899
    171          1           0        6.526470   -2.711132    3.321585
    172          1           0        6.197082   -2.093759    0.809013
    173         20           0       -1.151363    0.040985   -1.262005
    174          8           0       -0.121895   -0.026163   -3.726368
    175          1           0       -0.604231    0.699388   -4.131247
    176          1           0        0.375808   -0.407878   -4.456495
 ---------------------------------------------------------------------

 SCF Done:  E(RB3LYP) =  -5333.60678935     A.U. after   17 cycles

 The electronic state is 1-A.
 Alpha  occ. eigenvalues -- -145.38233 -19.14985 -19.14513 -19.14160 -19.14114
 Alpha  occ. eigenvalues --  -19.12855 -19.11434 -19.11083 -19.10762 -19.09904
 Alpha  occ. eigenvalues --  -19.09623 -19.09528 -19.09363 -19.08309 -19.06889
 Alpha  occ. eigenvalues --  -19.06858 -19.06624 -19.05994 -19.05219 -19.04914
 Alpha  occ. eigenvalues --  -19.04749 -19.04212 -19.03942 -19.03019 -15.43982
 Alpha  occ. eigenvalues --  -14.57780 -14.40007 -14.38021 -14.37635 -14.37244
 Alpha  occ. eigenvalues --  -14.34974 -14.34936 -14.34570 -14.33685 -14.32884
 Alpha  occ. eigenvalues --  -14.32444 -14.31773 -14.31689 -14.30807 -14.29567
 Alpha  occ. eigenvalues --  -12.57600 -12.57550 -12.57545 -10.34267 -10.32317
 Alpha  occ. eigenvalues --  -10.31924 -10.30987 -10.30186 -10.29223 -10.28608
 Alpha  occ. eigenvalues --  -10.28455 -10.28386 -10.26628 -10.26437 -10.26332
 Alpha  occ. eigenvalues --  -10.26190 -10.26077 -10.25478 -10.25259 -10.25096
 Alpha  occ. eigenvalues --  -10.24752 -10.24715 -10.24401 -10.24002 -10.23763
 Alpha  occ. eigenvalues --  -10.23734 -10.23282 -10.23071 -10.22933 -10.22832
 Alpha  occ. eigenvalues --  -10.22537 -10.22396 -10.22193 -10.21091 -10.20912
 Alpha  occ. eigenvalues --  -10.20604 -10.20595 -10.20368 -10.19959 -10.19818
 Alpha  occ. eigenvalues --  -10.19774 -10.19737 -10.19418 -10.19104 -10.19046
 Alpha  occ. eigenvalues --  -10.18691 -10.18047 -10.17758 -10.17676 -10.17428
 Alpha  occ. eigenvalues --  -10.17408 -10.17398 -10.17303 -10.17049 -10.16730
 Alpha  occ. eigenvalues --  -10.16235 -10.15483  -1.80861  -1.13109  -1.08716
 Alpha  occ. eigenvalues --   -1.08369  -1.08253  -1.07303  -1.06756  -1.05622
 Alpha  occ. eigenvalues --   -1.05229  -1.04412  -1.03894  -1.03213  -1.02914
 Alpha  occ. eigenvalues --   -1.02812  -1.02200  -1.01096  -1.00297  -1.00194
 Alpha  occ. eigenvalues --   -1.00108  -0.99981  -0.99556  -0.99352  -0.97921
 Alpha  occ. eigenvalues --   -0.97335  -0.96891  -0.96545  -0.94590  -0.94303
 Alpha  occ. eigenvalues --   -0.94166  -0.92337  -0.92260  -0.92008  -0.91748
 Alpha  occ. eigenvalues --   -0.91121  -0.90713  -0.89539  -0.88898  -0.88843
 Alpha  occ. eigenvalues --   -0.88681  -0.87976  -0.87818  -0.87624  -0.85789
 Alpha  occ. eigenvalues --   -0.83127  -0.82404  -0.81803  -0.81662  -0.80078
 Alpha  occ. eigenvalues --   -0.78632  -0.78400  -0.77635  -0.77441  -0.77204
 Alpha  occ. eigenvalues --   -0.75577  -0.74521  -0.74279  -0.72787  -0.72760
 Alpha  occ. eigenvalues --   -0.72692  -0.72221  -0.72185  -0.71233  -0.71005
 Alpha  occ. eigenvalues --   -0.69919  -0.69381  -0.68826  -0.68343  -0.68153
 Alpha  occ. eigenvalues --   -0.67365  -0.66163  -0.65806  -0.65013  -0.64836
 Alpha  occ. eigenvalues --   -0.64570  -0.63190  -0.62910  -0.62293  -0.61704
 Alpha  occ. eigenvalues --   -0.61546  -0.61094  -0.60390  -0.60233  -0.60034
 Alpha  occ. eigenvalues --   -0.59773  -0.59541  -0.59165  -0.57913  -0.57583
 Alpha  occ. eigenvalues --   -0.57092  -0.57031  -0.56854  -0.56254  -0.56125
 Alpha  occ. eigenvalues --   -0.55940  -0.55709  -0.55475  -0.55306  -0.54730
 Alpha  occ. eigenvalues --   -0.54472  -0.54050  -0.53670  -0.53418  -0.53236
 Alpha  occ. eigenvalues --   -0.52978  -0.52852  -0.52072  -0.51568  -0.51475
 Alpha  occ. eigenvalues --   -0.51302  -0.51104  -0.50827  -0.50508  -0.49945
 Alpha  occ. eigenvalues --   -0.49772  -0.49590  -0.49507  -0.49293  -0.48938
 Alpha  occ. eigenvalues --   -0.48856  -0.48742  -0.48497  -0.48220  -0.48095
 Alpha  occ. eigenvalues --   -0.47908  -0.47298  -0.47128  -0.47056  -0.46790
 Alpha  occ. eigenvalues --   -0.46704  -0.46668  -0.46565  -0.46416  -0.46026
 Alpha  occ. eigenvalues --   -0.45677  -0.45618  -0.45064  -0.44940  -0.44859
 Alpha  occ. eigenvalues --   -0.44697  -0.44630  -0.44578  -0.44254  -0.44101
 Alpha  occ. eigenvalues --   -0.43925  -0.43810  -0.43486  -0.43335  -0.43295
 Alpha  occ. eigenvalues --   -0.42988  -0.42764  -0.42602  -0.42463  -0.42262
 Alpha  occ. eigenvalues --   -0.42231  -0.42027  -0.42000  -0.41838  -0.41625
 Alpha  occ. eigenvalues --   -0.41610  -0.41333  -0.41193  -0.40904  -0.40839
 Alpha  occ. eigenvalues --   -0.40647  -0.40631  -0.40516  -0.40377  -0.40247
 Alpha  occ. eigenvalues --   -0.40163  -0.40116  -0.39982  -0.39694  -0.39619
 Alpha  occ. eigenvalues --   -0.39457  -0.39325  -0.39244  -0.39128  -0.38962
 Alpha  occ. eigenvalues --   -0.38890  -0.38704  -0.38477  -0.38320  -0.38203
 Alpha  occ. eigenvalues --   -0.38170  -0.38015  -0.37775  -0.37452  -0.37422
 Alpha  occ. eigenvalues --   -0.37353  -0.37269  -0.37231  -0.36850  -0.36846
 Alpha  occ. eigenvalues --   -0.36674  -0.36399  -0.36335  -0.36123  -0.36003
 Alpha  occ. eigenvalues --   -0.35887  -0.35587  -0.35349  -0.35159  -0.35062
 Alpha  occ. eigenvalues --   -0.34917  -0.34850  -0.34507  -0.34424  -0.34228
 Alpha  occ. eigenvalues --   -0.34179  -0.33468  -0.33282  -0.33138  -0.32816
 Alpha  occ. eigenvalues --   -0.32629  -0.32566  -0.32478  -0.32382  -0.32215
 Alpha  occ. eigenvalues --   -0.31167  -0.31050  -0.30934  -0.30643  -0.29934
 Alpha  occ. eigenvalues --   -0.29789  -0.29650  -0.29591  -0.29320  -0.29159
 Alpha  occ. eigenvalues --   -0.28792  -0.28509  -0.27847  -0.27190  -0.26809
 Alpha  occ. eigenvalues --   -0.26664  -0.26568  -0.25993  -0.25505  -0.25322
 Alpha  occ. eigenvalues --   -0.25250  -0.25088  -0.24927  -0.24580  -0.24242
 Alpha  occ. eigenvalues --   -0.24054  -0.23630  -0.23551  -0.23314  -0.23097
 Alpha  occ. eigenvalues --   -0.22964  -0.22702  -0.21962  -0.21867  -0.21742
 Alpha  occ. eigenvalues --   -0.21601  -0.21426  -0.20654  -0.20202  -0.20002
 Alpha  occ. eigenvalues --   -0.19539  -0.18836  -0.18589
 Alpha virt. eigenvalues --   -0.09920  -0.03875  -0.03444  -0.02669  -0.02342
 Alpha virt. eigenvalues --   -0.01487  -0.00670  -0.00556  -0.00141   0.00267
 Alpha virt. eigenvalues --    0.00532   0.00621   0.00796   0.01520   0.01696

 Mulliken charges:
               1
     1  C    0.066908
     2  C    0.021462
     3  O   -0.288390
     4  H    0.026787
     5  H    0.034340
     6  H    0.011878
     7  N   -0.106719
     8  C    0.099461
     9  C    0.048894
    10  O   -0.289089
    11  C    0.045447
    12  C    0.136309
    13  O   -0.460936
    14  O   -0.375155
    15  H    0.108334
    16  H   -0.006372
    17  H    0.008747
    18  H    0.017140
    19  N   -0.127242
    20  C    0.167029
    21  C    0.054911
    22  O   -0.306962
    23  C   -0.005767
    24  C    0.029826
    25  C   -0.061389
    26  C    0.090441
    27  N    0.063662
    28  H    0.158215
    29  H    0.006008
    30  H    0.008603
    31  H    0.015612
    32  H    0.038130
    33  H   -0.019005
    34  H    0.002845
    35  H    0.051918
    36  H    0.059959
    37  H    0.107829
    38  H    0.190297
    39  H    0.173469
    40  H    0.189720
    41  N   -0.149417
    42  C    0.121041
    43  C    0.074400
    44  O   -0.280727
    45  C    0.091376
    46  C    0.149355
    47  O   -0.404757
    48  O   -0.491799
    49  H    0.147343
    50  H    0.031055
    51  H    0.005171
    52  H    0.030732
    53  N   -0.173126
    54  C    0.224002
    55  C    0.013752
    56  O   -0.289006
    57  H    0.140414
    58  H    0.012186
    59  H    0.026406
    60  N   -0.144270
    61  C    0.163231
    62  C    0.020918
    63  O   -0.291695
    64  C    0.055151
    65  C    0.064678
    66  N   -0.026642
    67  O   -0.345980
    68  H    0.149570
    69  H    0.027801
    70  H    0.066895
    71  H    0.036745
    72  H    0.130904
    73  H    0.117668
    74  N   -0.129144
    75  C    0.216035
    76  C    0.042533
    77  O   -0.292916
    78  H    0.149982
    79  H    0.027883
    80  H    0.026712
    81  N   -0.147032
    82  C    0.154339
    83  C    0.126071
    84  O   -0.370036
    85  C    0.105148
    86  C    0.031544
    87  C   -0.003786
    88  C    0.020355
    89  C   -0.015111
    90  C   -0.047698
    91  C    0.163025
    92  O   -0.191155
    93  H    0.143611
    94  H    0.000831
    95  H   -0.027230
    96  H   -0.044752
    97  H   -0.012757
    98  H   -0.047985
    99  H   -0.022471
   100  H   -0.050528
   101  H    0.168307
   102  N   -0.124556
   103  C    0.169241
   104  C    0.049887
   105  O   -0.289138
   106  C   -0.118741
   107  C   -0.007003
   108  C    0.077846
   109  C    0.041213
   110  H    0.128699
   111  H   -0.001838
   112  H   -0.016998
   113  H    0.003261
   114  H    0.027981
   115  H    0.004903
   116  H    0.016151
   117  H    0.006295
   118  H    0.029561
   119  H   -0.006975
   120  H    0.009274
   121  N   -0.144295
   122  C    0.087691
   123  C    0.138411
   124  O   -0.278859
   125  C    0.238950
   126  O   -0.323536
   127  H    0.131892
   128  H    0.008331
   129  H    0.016195
   130  H   -0.031840
   131  H    0.173863
   132  N   -0.133194
   133  C    0.085672
   134  C    0.041774
   135  O   -0.270189
   136  C    0.062419
   137  H    0.119908
   138  H    0.019064
   139  H    0.034236
   140  H    0.004016
   141  H    0.046688
   142  N   -0.144019
   143  C    0.070079
   144  C    0.106558
   145  O   -0.289856
   146  C    0.025661
   147  H    0.112982
   148  H    0.021634
   149  H    0.028103
   150  H    0.026923
   151  H    0.020450
   152  N   -0.178031
   153  C    0.127958
   154  C    0.082167
   155  O   -0.287569
   156  C   -0.093428
   157  C    0.098941
   158  C    0.221194
   159  O   -0.401457
   160  O   -0.475309
   161  H    0.138560
   162  H   -0.031343
   163  H    0.046701
   164  H    0.049305
   165  H    0.013448
   166  H   -0.023394
   167  N   -0.162075
   168  C    0.137507
   169  H    0.015980
   170  H    0.030666
   171  H    0.009889
   172  H    0.134513
   173  Ca   1.302694
   174  O   -0.340849
   175  H    0.148137
   176  H    0.166709
 Sum of Mulliken charges =   0.00000

 Dipole moment (field-independent basis, Debye):
    X=             29.8887    Y=              1.6470    Z=              0.9030  Tot=             29.9476
 Quadrupole moment (field-independent basis, Debye-Ang):
   XX=           -609.1129   YY=           -430.2465   ZZ=           -535.8529
   XY=            156.1644   XZ=              4.9396   YZ=             95.0303

 ESP charges:
               1
     1  C   -0.456856
     2  C    0.803661
     3  O   -0.634264
     4  H    0.134294
     5  H    0.121922
     6  H    0.102186
     7  N   -0.693262
     8  C    0.228634
     9  C    0.559022
    10  O   -0.569495
    11  C   -0.552534
    12  C    1.080426
    13  O   -0.803326
    14  O   -0.769884
    15  H    0.347084
    16  H   -0.017227
    17  H    0.119490
    18  H    0.117919
    19  N   -0.262854
    20  C   -0.041767
    21  C    0.557594
    22  O   -0.595999
    23  C   -0.091879
    24  C   -0.137008
    25  C    0.044181
    26  C   -0.095970
    27  N   -0.173252
    28  H    0.179777
    29  H    0.091622
    30  H    0.059899
    31  H    0.041880
    32  H    0.084927
    33  H    0.046898
    34  H    0.023543
    35  H    0.073138
    36  H    0.097339
    37  H    0.121976
    38  H    0.294817
    39  H    0.265627
    40  H    0.277966
    41  N   -0.414971
    42  C    0.074655
    43  C    0.484788
    44  O   -0.537036
    45  C   -0.324190
    46  C    0.750423
    47  O   -0.700733
    48  O   -0.663539
    49  H    0.263856
    50  H    0.125166
    51  H    0.100210
    52  H    0.100530
    53  N   -0.304436
    54  C   -0.085508
    55  C    0.607710
    56  O   -0.596091
    57  H    0.199427
    58  H    0.090260
    59  H    0.074556
    60  N   -0.278602
    61  C   -0.102124
    62  C    0.403991
    63  O   -0.481801
    64  C   -0.133207
    65  C    0.637737
    66  N   -0.800675
    67  O   -0.555865
    68  H    0.190265
    69  H    0.143327
    70  H    0.112898
    71  H    0.048060
    72  H    0.376142
    73  H    0.373127
    74  N   -0.238558
    75  C   -0.106199
    76  C    0.623841
    77  O   -0.554310
    78  H    0.240555
    79  H    0.103718
    80  H    0.079995
    81  N   -0.745939
    82  C    0.662979
    83  C    0.386410
    84  O   -0.470856
    85  C   -0.183471
    86  C    0.400209
    87  C   -0.588350
    88  C   -0.321716
    89  C    0.011625
    90  C   -0.169171
    91  C    0.229269
    92  O   -0.515113
    93  H    0.287956
    94  H   -0.065779
    95  H   -0.033970
    96  H    0.007393
    97  H    0.312286
    98  H    0.147283
    99  H    0.103080
   100  H    0.119063
   101  H    0.390579
   102  N   -0.598773
   103  C    0.014391
   104  C    0.768614
   105  O   -0.586085
   106  C   -0.080596
   107  C    0.308363
   108  C   -0.126556
   109  C   -0.477477
   110  H    0.333044
   111  H   -0.004937
   112  H    0.052707
   113  H   -0.018047
   114  H    0.045966
   115  H    0.053086
   116  H    0.043365
   117  H   -0.000728
   118  H    0.124743
   119  H    0.096274
   120  H    0.115145
   121  N   -0.663463
   122  C    0.156626
   123  C    0.470801
   124  O   -0.370277
   125  C    0.200749
   126  O   -0.637852
   127  H    0.386290
   128  H    0.007362
   129  H    0.023636
   130  H   -0.002048
   131  H    0.436406
   132  N   -0.482985
   133  C    0.180076
   134  C    0.623444
   135  O   -0.592265
   136  C   -0.332315
   137  H    0.292850
   138  H    0.048867
   139  H    0.110555
   140  H    0.060991
   141  H    0.126690
   142  N   -0.523614
   143  C    0.240066
   144  C    0.319945
   145  O   -0.536887
   146  C   -0.331195
   147  H    0.293548
   148  H    0.063923
   149  H    0.109510
   150  H    0.091624
   151  H    0.083436
   152  N   -0.026520
   153  C   -0.124951
   154  C    0.465791
   155  O   -0.567017
   156  C    0.183141
   157  C   -0.371195
   158  C    0.813094
   159  O   -0.653171
   160  O   -0.732416
   161  H    0.113088
   162  H    0.076214
   163  H    0.056244
   164  H   -0.102710
   165  H    0.090790
   166  H    0.094017
   167  N   -0.074385
   168  C   -0.147361
   169  H    0.065628
   170  H    0.091867
   171  H    0.048200
   172  H    0.089460
   173  Ca   1.498182
   174  O   -0.924773
   175  H    0.433498
   176  H    0.416881
 Sum of ESP charges =   0.00000

 Normal termination of Gaussian 09 at Mon Sep 16 20:42:42 2019.
