 Gaussian 09, Revision D.01,
 Gaussian 09:  ES64L-G09RevD.01 24-Apr-2013

 ----------------------------------------------------------------------
 #maxdisk=50GB #B3LYP/SVP Density=Current scf=(tight) #IOP(5/87=12)Pop=
 (MK,readradii) iop(6/33=2) iop(6/42=6)
 ----------------------------------------------------------------------

 ------------
 SOL molecule
 ------------
 Symbolic Z-matrix:
 Charge =  0 Multiplicity = 1

                         Standard orientation:
 ---------------------------------------------------------------------
 Center     Atomic      Atomic             Coordinates (Angstroms)
 Number     Number       Type             X           Y           Z
 ---------------------------------------------------------------------
      1          6           0        2.747325    3.447468    5.182062
      2          6           0        2.161219    2.882753    3.899847
      3          8           0        2.841079    2.844993    2.875022
      4          1           0        2.769959    4.534995    5.122074
      5          1           0        2.130857    3.144173    6.027935
      6          1           0        3.761256    3.069572    5.315724
      7          7           0        0.868354    2.571115    3.851058
      8          6           0        0.062414    2.323476    2.673418
      9          6           0       -0.187264    3.649146    1.949291
     10          8           0       -0.622582    4.607670    2.590719
     11          6           0       -1.256805    1.665339    3.076675
     12          6           0       -2.245100    1.366839    1.958698
     13          8           0       -1.969788    1.452572    0.737939
     14          8           0       -3.338051    0.860630    2.294718
     15          1           0        0.445606    2.675214    4.769616
     16          1           0        0.552648    1.618228    2.006787
     17          1           0       -1.679360    2.246795    3.896588
     18          1           0       -0.976787    0.704214    3.507056
     19          7           0        0.169449    3.660950    0.662894
     20          6           0        0.389546    4.896134   -0.050111
     21          6           0       -0.813637    5.366285   -0.871275
     22          8           0       -1.036364    6.571095   -0.965746
     23          6           0        1.574157    4.751187   -1.004673
     24          6           0        2.177652    6.098562   -1.417314
     25          6           0        2.915804    6.921826   -0.371815
     26          6           0        4.311905    7.365888   -0.782925
     27          7           0        4.303109    8.514474   -1.694447
     28          1           0        0.312361    2.779577    0.187438
     29          1           0        0.581987    5.719746    0.635111
     30          1           0        1.264685    4.148400   -1.864367
     31          1           0        2.356744    4.176420   -0.532443
     32          1           0        1.303504    6.673111   -1.710333
     33          1           0        2.750773    5.951169   -2.332195
     34          1           0        2.904788    6.320769    0.535273
     35          1           0        2.331189    7.822585   -0.152137
     36          1           0        4.934373    6.589862   -1.218030
     37          1           0        4.751810    7.655403    0.164790
     38          1           0        3.986082    8.263181   -2.621187
     39          1           0        3.704847    9.218163   -1.278869
     40          1           0        5.198942    8.978893   -1.776897
     41          7           0       -1.641974    4.480464   -1.412737
     42          6           0       -2.876252    4.822841   -2.085890
     43          6           0       -4.062991    4.659141   -1.142835
     44          8           0       -5.231064    4.707986   -1.506868
     45          6           0       -2.953922    4.136864   -3.451101
     46          6           0       -2.391564    2.718321   -3.526540
     47          8           0       -1.643881    2.338510   -4.444589
     48          8           0       -2.592787    2.047117   -2.492957
     49          1           0       -1.573260    3.490440   -1.193578
     50          1           0       -2.903334    5.899700   -2.278092
     51          1           0       -2.357508    4.800173   -4.067957
     52          1           0       -4.001408    4.016755   -3.746477
     53          7           0       -3.738988    4.279425    0.091927
     54          6           0       -4.739311    4.037426    1.110598
     55          6           0       -5.692508    2.862174    0.907868
     56          8           0       -6.629686    2.771052    1.691701
     57          1           0       -2.782196    3.973213    0.246145
     58          1           0       -5.382060    4.892133    1.316143
     59          1           0       -4.152118    3.810571    2.002921
     60          7           0       -5.459465    1.962098   -0.047199
     61          6           0       -6.356059    0.920553   -0.500964
     62          6           0       -6.501976   -0.309570    0.392795
     63          8           0       -7.467394   -1.055213    0.227310
     64          6           0       -5.933106    0.596701   -1.921327
     65          6           0       -4.834116   -0.459197   -1.968233
     66          7           0       -4.984117   -1.358082   -2.936533
     67          8           0       -3.871236   -0.472748   -1.200653
     68          1           0       -4.587798    2.111475   -0.539117
     69          1           0       -7.377785    1.295437   -0.590624
     70          1           0       -5.628054    1.547327   -2.360820
     71          1           0       -6.713927    0.290335   -2.614694
     72          1           0       -5.846631   -1.423099   -3.457630
     73          1           0       -4.257984   -2.028911   -3.136081
     74          7           0       -5.821052   -0.332644    1.537482
     75          6           0       -5.957275   -1.412670    2.496641
     76          6           0       -5.073748   -2.606984    2.152554
     77          8           0       -5.380790   -3.739261    2.519944
     78          1           0       -5.117893    0.377339    1.673838
     79          1           0       -6.997739   -1.737272    2.470771
     80          1           0       -5.704062   -1.029749    3.476311
     81          7           0       -3.934855   -2.474537    1.465691
     82          6           0       -2.931815   -3.474243    1.163371
     83          6           0       -1.525745   -2.888594    1.141432
     84          8           0       -1.241869   -1.742914    0.818581
     85          6           0       -3.232255   -3.996282   -0.230082
     86          6           0       -4.642259   -4.518717   -0.390867
     87          6           0       -5.635417   -3.712052   -0.943613
     88          6           0       -4.905080   -5.869660   -0.136745
     89          6           0       -6.909113   -4.248083   -1.182087
     90          6           0       -6.172259   -6.429151   -0.346808
     91          6           0       -7.139971   -5.621658   -0.978622
     92          8           0       -8.306671   -6.179949   -1.421929
     93          1           0       -3.728974   -1.522996    1.176412
     94          1           0       -2.921724   -4.199303    1.977304
     95          1           0       -2.551035   -4.820925   -0.458342
     96          1           0       -3.144794   -3.223620   -0.991885
     97          1           0       -5.480472   -2.650486   -1.063481
     98          1           0       -4.156582   -6.461343    0.361013
     99          1           0       -7.696176   -3.656044   -1.621428
    100          1           0       -6.413014   -7.470568   -0.151902
    101          1           0       -8.396096   -7.100230   -1.175786
    102          7           0       -0.501992   -3.731707    1.319164
    103          6           0        0.906263   -3.370504    1.312017
    104          6           0        1.629323   -4.065564    0.163943
    105          8           0        1.405965   -5.264136   -0.000177
    106          6           0        1.505353   -3.548325    2.703193
    107          6           0        1.040707   -2.439555    3.647881
    108          6           0        3.021566   -3.390209    2.552866
    109          6           0        1.358520   -0.982543    3.345538
    110          1           0       -0.790635   -4.699293    1.350193
    111          1           0        1.051498   -2.306721    1.125811
    112          1           0        1.278320   -4.533281    3.110523
    113          1           0        1.461877   -2.580426    4.645764
    114          1           0       -0.053575   -2.456909    3.620557
    115          1           0        3.454465   -4.220861    1.992942
    116          1           0        3.340925   -2.448862    2.098909
    117          1           0        3.361420   -3.411415    3.580217
    118          1           0        1.063630   -0.726263    2.322474
    119          1           0        0.716923   -0.362906    3.972676
    120          1           0        2.369800   -0.725956    3.628162
    121          7           0        2.432471   -3.332260   -0.604444
    122          6           0        3.372451   -3.835950   -1.598494
    123          6           0        4.802465   -3.722344   -1.086486
    124          8           0        5.082848   -3.217992   -0.005738
    125          6           0        3.247102   -2.963901   -2.848901
    126          8           0        1.895814   -2.891669   -3.250154
    127          1           0        2.445031   -2.343620   -0.410453
    128          1           0        3.174584   -4.876277   -1.866578
    129          1           0        3.825489   -3.400863   -3.662678
    130          1           0        3.689950   -1.996246   -2.658298
    131          1           0        1.576526   -2.475816   -2.456919
    132          7           0        5.772522   -4.261196   -1.820807
    133          6           0        7.202141   -4.149292   -1.584655
    134          6           0        7.724784   -2.745005   -1.284118
    135          8           0        8.322466   -2.555861   -0.219646
    136          6           0        8.173945   -4.802609   -2.568766
    137          1           0        5.430150   -4.619896   -2.703710
    138          1           0        7.219644   -4.738486   -0.670794
    139          1           0        8.108429   -4.418892   -3.584969
    140          1           0        9.215937   -4.834762   -2.264107
    141          1           0        7.854870   -5.841817   -2.653254
    142          7           0        7.460167   -1.777431   -2.159719
    143          6           0        7.649532   -0.357096   -2.019393
    144          6           0        7.030462    0.240215   -0.754138
    145          8           0        7.637017    1.149778   -0.191479
    146          6           0        6.992863    0.289256   -3.235747
    147          1           0        7.073814   -2.166144   -3.011561
    148          1           0        8.725229   -0.181091   -2.029271
    149          1           0        7.671128    0.071545   -4.056818
    150          1           0        5.974833   -0.040447   -3.450483
    151          1           0        6.989007    1.364414   -3.065103
    152          7           0        5.888803   -0.222998   -0.258811
    153          6           0        5.212881    0.289746    0.921496
    154          6           0        5.791634   -0.428853    2.134781
    155          8           0        5.866842    0.220981    3.175050
    156          6           0        3.718413    0.023149    0.727354
    157          6           0        3.061324    0.902867   -0.334922
    158          6           0        1.610854    0.513971   -0.559186
    159          8           0        0.773501    1.431098   -0.662240
    160          8           0        1.244947   -0.662653   -0.781600
    161          1           0        5.386301   -0.956106   -0.741868
    162          1           0        5.298089    1.371103    1.031073
    163          1           0        3.149700    0.224321    1.632835
    164          1           0        3.574453   -1.009592    0.410933
    165          1           0        3.493033    0.688067   -1.318786
    166          1           0        3.249119    1.914782    0.010566
    167          7           0        6.379354   -1.623203    2.002823
    168          6           0        6.905792   -2.438537    3.074314
    169          1           0        7.629268   -3.145954    2.669527
    170          1           0        7.394491   -1.800516    3.810064
    171          1           0        6.091072   -2.984431    3.549925
    172          1           0        6.352149   -1.991403    1.064426
    173         20           0       -1.265326    0.171827   -1.269628
    174          8           0       -1.268219   -2.148795   -2.611458
    175          1           0       -0.466704   -2.098114   -3.137105
    176          1           0       -1.663718   -2.973722   -2.867535
 ---------------------------------------------------------------------

 SCF Done:  E(RB3LYP) =  -5333.55427080     A.U. after   18 cycles

 The electronic state is 1-A.
 Alpha  occ. eigenvalues -- -145.37233 -19.19487 -19.16702 -19.13899 -19.13750
 Alpha  occ. eigenvalues --  -19.11594 -19.11168 -19.11065 -19.10383 -19.10224
 Alpha  occ. eigenvalues --  -19.10127 -19.09213 -19.07911 -19.07192 -19.06988
 Alpha  occ. eigenvalues --  -19.05573 -19.05551 -19.04649 -19.04639 -19.04364
 Alpha  occ. eigenvalues --  -19.04364 -19.03717 -19.02552 -19.02257 -15.43012
 Alpha  occ. eigenvalues --  -14.59181 -14.40303 -14.38716 -14.36876 -14.36255
 Alpha  occ. eigenvalues --  -14.35805 -14.35381 -14.33626 -14.33163 -14.31680
 Alpha  occ. eigenvalues --  -14.31593 -14.31197 -14.31136 -14.30279 -14.29359
 Alpha  occ. eigenvalues --  -12.56621 -12.56589 -12.56566 -10.34951 -10.32306
 Alpha  occ. eigenvalues --  -10.30661 -10.29656 -10.29551 -10.28878 -10.28603
 Alpha  occ. eigenvalues --  -10.28543 -10.27760 -10.27004 -10.26951 -10.26853
 Alpha  occ. eigenvalues --  -10.26354 -10.26280 -10.25860 -10.25290 -10.24674
 Alpha  occ. eigenvalues --  -10.23958 -10.23775 -10.23464 -10.23215 -10.23162
 Alpha  occ. eigenvalues --  -10.22847 -10.22772 -10.22634 -10.22608 -10.22484
 Alpha  occ. eigenvalues --  -10.22366 -10.22315 -10.22275 -10.22167 -10.20489
 Alpha  occ. eigenvalues --  -10.20445 -10.20312 -10.19784 -10.19448 -10.19207
 Alpha  occ. eigenvalues --  -10.18711 -10.18525 -10.18447 -10.18336 -10.18227
 Alpha  occ. eigenvalues --  -10.18198 -10.18088 -10.16893 -10.16723 -10.16681
 Alpha  occ. eigenvalues --  -10.16469 -10.16208 -10.16061 -10.15968 -10.15936
 Alpha  occ. eigenvalues --  -10.15854 -10.14799  -1.79936  -1.14371  -1.08118
 Alpha  occ. eigenvalues --   -1.07777  -1.07581  -1.07316  -1.05975  -1.05464
 Alpha  occ. eigenvalues --   -1.05296  -1.04618  -1.03897  -1.03388  -1.02815
 Alpha  occ. eigenvalues --   -1.02565  -1.02340  -1.01416  -1.00536  -0.99271
 Alpha  occ. eigenvalues --   -0.98959  -0.98757  -0.98388  -0.98325  -0.98076
 Alpha  occ. eigenvalues --   -0.97669  -0.96809  -0.96805  -0.95454  -0.95412
 Alpha  occ. eigenvalues --   -0.93679  -0.92438  -0.91795  -0.91313  -0.90946
 Alpha  occ. eigenvalues --   -0.89925  -0.89791  -0.88594  -0.88428  -0.88172
 Alpha  occ. eigenvalues --   -0.88006  -0.87837  -0.87589  -0.86981  -0.85999
 Alpha  occ. eigenvalues --   -0.83225  -0.82347  -0.81549  -0.81438  -0.80510
 Alpha  occ. eigenvalues --   -0.79292  -0.78566  -0.76990  -0.76839  -0.76113
 Alpha  occ. eigenvalues --   -0.75279  -0.74208  -0.74036  -0.73513  -0.72782
 Alpha  occ. eigenvalues --   -0.72059  -0.71690  -0.71465  -0.71027  -0.70279
 Alpha  occ. eigenvalues --   -0.69848  -0.69313  -0.68839  -0.68533  -0.68296
 Alpha  occ. eigenvalues --   -0.67663  -0.66878  -0.65076  -0.64190  -0.63878
 Alpha  occ. eigenvalues --   -0.63631  -0.63287  -0.62504  -0.62434  -0.62017
 Alpha  occ. eigenvalues --   -0.61388  -0.60744  -0.60536  -0.59952  -0.59843
 Alpha  occ. eigenvalues --   -0.59517  -0.58980  -0.58461  -0.58275  -0.57811
 Alpha  occ. eigenvalues --   -0.57783  -0.56775  -0.56064  -0.55864  -0.55787
 Alpha  occ. eigenvalues --   -0.55372  -0.54984  -0.54967  -0.54824  -0.54720
 Alpha  occ. eigenvalues --   -0.54305  -0.53937  -0.53728  -0.53633  -0.53419
 Alpha  occ. eigenvalues --   -0.53118  -0.53091  -0.52587  -0.52357  -0.52251
 Alpha  occ. eigenvalues --   -0.51466  -0.51310  -0.50776  -0.50518  -0.50148
 Alpha  occ. eigenvalues --   -0.49790  -0.49454  -0.49187  -0.48919  -0.48734
 Alpha  occ. eigenvalues --   -0.48507  -0.48206  -0.47915  -0.47634  -0.47427
 Alpha  occ. eigenvalues --   -0.47106  -0.46936  -0.46891  -0.46675  -0.46508
 Alpha  occ. eigenvalues --   -0.46257  -0.46056  -0.45897  -0.45655  -0.45490
 Alpha  occ. eigenvalues --   -0.45154  -0.45143  -0.44903  -0.44764  -0.44713
 Alpha  occ. eigenvalues --   -0.44656  -0.44576  -0.44345  -0.44013  -0.43962
 Alpha  occ. eigenvalues --   -0.43681  -0.43495  -0.43301  -0.43279  -0.43004
 Alpha  occ. eigenvalues --   -0.42800  -0.42608  -0.42549  -0.42458  -0.42166
 Alpha  occ. eigenvalues --   -0.42097  -0.41752  -0.41724  -0.41624  -0.41514
 Alpha  occ. eigenvalues --   -0.41456  -0.41268  -0.41084  -0.40929  -0.40487
 Alpha  occ. eigenvalues --   -0.40370  -0.40081  -0.40057  -0.39884  -0.39717
 Alpha  occ. eigenvalues --   -0.39702  -0.39557  -0.39376  -0.39226  -0.39150
 Alpha  occ. eigenvalues --   -0.38957  -0.38754  -0.38584  -0.38423  -0.38325
 Alpha  occ. eigenvalues --   -0.38255  -0.38218  -0.38152  -0.37983  -0.37887
 Alpha  occ. eigenvalues --   -0.37757  -0.37619  -0.37476  -0.37229  -0.36999
 Alpha  occ. eigenvalues --   -0.36992  -0.36928  -0.36886  -0.36761  -0.36569
 Alpha  occ. eigenvalues --   -0.36380  -0.36216  -0.35764  -0.35698  -0.35609
 Alpha  occ. eigenvalues --   -0.35540  -0.35388  -0.35070  -0.35006  -0.34510
 Alpha  occ. eigenvalues --   -0.34433  -0.34288  -0.34114  -0.33574  -0.33547
 Alpha  occ. eigenvalues --   -0.33224  -0.33131  -0.32936  -0.32674  -0.32429
 Alpha  occ. eigenvalues --   -0.32099  -0.31921  -0.31909  -0.31781  -0.31619
 Alpha  occ. eigenvalues --   -0.31427  -0.30938  -0.30930  -0.30662  -0.30078
 Alpha  occ. eigenvalues --   -0.29591  -0.29227  -0.29111  -0.28656  -0.28578
 Alpha  occ. eigenvalues --   -0.27846  -0.27109  -0.26870  -0.26855  -0.26741
 Alpha  occ. eigenvalues --   -0.26522  -0.26295  -0.26232  -0.25583  -0.25006
 Alpha  occ. eigenvalues --   -0.24842  -0.24637  -0.23857  -0.23320  -0.23106
 Alpha  occ. eigenvalues --   -0.22953  -0.22535  -0.22268  -0.22116  -0.22033
 Alpha  occ. eigenvalues --   -0.21892  -0.21790  -0.21394  -0.21310  -0.21038
 Alpha  occ. eigenvalues --   -0.20988  -0.20565  -0.19737  -0.19565  -0.19177
 Alpha  occ. eigenvalues --   -0.18806  -0.18597  -0.18099
 Alpha virt. eigenvalues --   -0.10858  -0.05115  -0.04676  -0.02891  -0.02363
 Alpha virt. eigenvalues --   -0.01468  -0.00435  -0.00387   0.00437   0.00534
 Alpha virt. eigenvalues --    0.00914   0.01297   0.01572   0.01756   0.02346

 Mulliken charges:
               1
     1  C    0.060581
     2  C    0.013409
     3  O   -0.318187
     4  H    0.037851
     5  H   -0.003877
     6  H    0.048530
     7  N   -0.112440
     8  C    0.145998
     9  C    0.071435
    10  O   -0.295608
    11  C    0.028472
    12  C    0.162079
    13  O   -0.485144
    14  O   -0.371146
    15  H    0.114045
    16  H   -0.019531
    17  H    0.010915
    18  H    0.016253
    19  N   -0.138763
    20  C    0.114342
    21  C    0.049380
    22  O   -0.297543
    23  C    0.042290
    24  C    0.014748
    25  C   -0.036540
    26  C    0.022141
    27  N    0.075881
    28  H    0.164986
    29  H   -0.007439
    30  H    0.021504
    31  H    0.013198
    32  H    0.011324
    33  H   -0.025400
    34  H    0.077997
    35  H    0.032219
    36  H    0.081560
    37  H    0.072836
    38  H    0.199372
    39  H    0.187968
    40  H    0.191448
    41  N   -0.161333
    42  C    0.116918
    43  C    0.023492
    44  O   -0.277133
    45  C    0.139447
    46  C    0.058368
    47  O   -0.347359
    48  O   -0.474880
    49  H    0.147726
    50  H    0.021343
    51  H   -0.019192
    52  H    0.019603
    53  N   -0.176471
    54  C    0.228497
    55  C    0.018918
    56  O   -0.295660
    57  H    0.146467
    58  H    0.026825
    59  H    0.031341
    60  N   -0.140587
    61  C    0.158565
    62  C    0.042278
    63  O   -0.302309
    64  C    0.065484
    65  C    0.093386
    66  N   -0.041667
    67  O   -0.335176
    68  H    0.144307
    69  H    0.028907
    70  H    0.057178
    71  H   -0.014442
    72  H    0.134889
    73  H    0.114413
    74  N   -0.156176
    75  C    0.281091
    76  C    0.007999
    77  O   -0.301847
    78  H    0.157899
    79  H    0.029532
    80  H    0.030794
    81  N   -0.158280
    82  C    0.135206
    83  C    0.093792
    84  O   -0.327164
    85  C    0.154529
    86  C    0.011943
    87  C   -0.005544
    88  C   -0.000719
    89  C    0.012144
    90  C   -0.012859
    91  C    0.126348
    92  O   -0.203991
    93  H    0.144803
    94  H    0.007145
    95  H   -0.020698
    96  H   -0.044999
    97  H   -0.041740
    98  H   -0.044876
    99  H   -0.031663
   100  H   -0.050166
   101  H    0.166940
   102  N   -0.119276
   103  C    0.154905
   104  C    0.044707
   105  O   -0.283195
   106  C   -0.054271
   107  C    0.036138
   108  C    0.051534
   109  C   -0.052221
   110  H    0.121273
   111  H    0.006549
   112  H   -0.016235
   113  H   -0.000036
   114  H   -0.003152
   115  H    0.017157
   116  H    0.013440
   117  H    0.002449
   118  H    0.046208
   119  H    0.002729
   120  H    0.037367
   121  N   -0.160105
   122  C    0.082229
   123  C    0.041685
   124  O   -0.262993
   125  C    0.244346
   126  O   -0.309231
   127  H    0.165062
   128  H    0.040547
   129  H   -0.008231
   130  H   -0.018772
   131  H    0.153600
   132  N   -0.105027
   133  C    0.084609
   134  C    0.039314
   135  O   -0.261400
   136  C    0.051969
   137  H    0.107475
   138  H    0.024943
   139  H    0.007647
   140  H    0.054199
   141  H    0.020331
   142  N   -0.115915
   143  C    0.113473
   144  C    0.059221
   145  O   -0.269936
   146  C    0.020570
   147  H    0.099122
   148  H    0.023305
   149  H    0.021889
   150  H    0.018947
   151  H    0.029872
   152  N   -0.152734
   153  C    0.164122
   154  C    0.057183
   155  O   -0.285371
   156  C   -0.095980
   157  C    0.114742
   158  C    0.165734
   159  O   -0.450080
   160  O   -0.426714
   161  H    0.111615
   162  H    0.012663
   163  H    0.046327
   164  H    0.002754
   165  H   -0.013677
   166  H    0.022105
   167  N   -0.155291
   168  C    0.145547
   169  H    0.017028
   170  H    0.027433
   171  H    0.010130
   172  H    0.142832
   173  Ca   1.287630
   174  O   -0.285682
   175  H    0.186699
   176  H    0.189443
 Sum of Mulliken charges =   0.00000

 Dipole moment (field-independent basis, Debye):
    X=             31.5299    Y=             12.2835    Z=            -17.1671  Tot=             37.9437
 Quadrupole moment (field-independent basis, Debye-Ang):
   XX=           -625.8283   YY=           -319.1589   ZZ=           -546.3433
   XY=            144.4253   XZ=            -61.3427   YZ=            -12.5488

 ESP charges:
               1
     1  C   -0.444784
     2  C    0.792883
     3  O   -0.622256
     4  H    0.132047
     5  H    0.090080
     6  H    0.138956
     7  N   -0.871895
     8  C    0.342610
     9  C    0.955705
    10  O   -0.636592
    11  C   -0.456299
    12  C    0.823417
    13  O   -0.930277
    14  O   -0.679155
    15  H    0.392242
    16  H   -0.012978
    17  H    0.106421
    18  H    0.152827
    19  N   -1.089596
    20  C    0.531717
    21  C    0.285342
    22  O   -0.553247
    23  C    0.026140
    24  C   -0.118703
    25  C   -0.103276
    26  C    0.100377
    27  N   -0.393079
    28  H    0.555393
    29  H   -0.029262
    30  H    0.008978
    31  H    0.000902
    32  H    0.031681
    33  H    0.023140
    34  H    0.101221
    35  H    0.057939
    36  H    0.082176
    37  H    0.055301
    38  H    0.338590
    39  H    0.336522
    40  H    0.334455
    41  N   -0.209238
    42  C    0.165568
    43  C    0.422574
    44  O   -0.542760
    45  C   -0.452648
    46  C    0.853753
    47  O   -0.700626
    48  O   -0.849691
    49  H    0.176597
    50  H    0.087677
    51  H    0.098304
    52  H    0.113694
    53  N   -0.239015
    54  C   -0.287125
    55  C    0.643425
    56  O   -0.592543
    57  H    0.209009
    58  H    0.144536
    59  H    0.129185
    60  N   -0.398201
    61  C   -0.213218
    62  C    0.414437
    63  O   -0.535717
    64  C   -0.215260
    65  C    0.628321
    66  N   -0.815059
    67  O   -0.544641
    68  H    0.461745
    69  H    0.184962
    70  H    0.143714
    71  H    0.079648
    72  H    0.381426
    73  H    0.379041
    74  N    0.052350
    75  C   -0.499542
    76  C    0.740543
    77  O   -0.573233
    78  H    0.192294
    79  H    0.181515
    80  H    0.178281
    81  N   -0.629559
    82  C    0.536924
    83  C    0.461575
    84  O   -0.464322
    85  C   -0.540714
    86  C    0.526403
    87  C   -0.716592
    88  C   -0.436664
    89  C    0.119357
    90  C   -0.055094
    91  C    0.158802
    92  O   -0.545313
    93  H    0.239271
    94  H   -0.029550
    95  H    0.082016
    96  H    0.155391
    97  H    0.359328
    98  H    0.181550
    99  H    0.084071
   100  H    0.090179
   101  H    0.412643
   102  N   -0.550083
   103  C    0.049626
   104  C    0.664573
   105  O   -0.578640
   106  C    0.217459
   107  C   -0.362889
   108  C   -0.395114
   109  C    0.236059
   110  H    0.298290
   111  H   -0.016618
   112  H    0.023353
   113  H    0.085581
   114  H    0.057431
   115  H    0.072838
   116  H    0.025059
   117  H    0.127243
   118  H    0.024638
   119  H   -0.022627
   120  H   -0.007559
   121  N   -0.449899
   122  C    0.055896
   123  C    0.348689
   124  O   -0.303436
   125  C    0.286790
   126  O   -0.545861
   127  H    0.307046
   128  H    0.070404
   129  H    0.017467
   130  H   -0.043137
   131  H    0.279561
   132  N   -0.431969
   133  C    0.206961
   134  C    0.405188
   135  O   -0.486447
   136  C   -0.404439
   137  H    0.262925
   138  H    0.079981
   139  H    0.106529
   140  H    0.151477
   141  H    0.110529
   142  N   -0.357608
   143  C    0.290375
   144  C    0.248498
   145  O   -0.506231
   146  C   -0.488163
   147  H    0.207772
   148  H    0.062635
   149  H    0.126884
   150  H    0.130137
   151  H    0.145025
   152  N    0.057189
   153  C   -0.166421
   154  C    0.490234
   155  O   -0.561590
   156  C    0.265406
   157  C   -0.718659
   158  C    0.923364
   159  O   -0.775276
   160  O   -0.687835
   161  H    0.014197
   162  H    0.127348
   163  H   -0.043801
   164  H    0.084532
   165  H    0.132326
   166  H    0.222441
   167  N   -0.056699
   168  C   -0.150438
   169  H    0.082114
   170  H    0.087954
   171  H    0.041451
   172  H   -0.000314
   173  Ca   1.566941
   174  O   -0.882005
   175  H    0.425291
   176  H    0.450600
 Sum of ESP charges =   0.00000

 Normal termination of Gaussian 09 at Mon Sep 16 17:32:27 2019.
