 Gaussian 09, Revision D.01,
 Gaussian 09:  ES64L-G09RevD.01 24-Apr-2013

 ----------------------------------------------------------------------
 #maxdisk=50GB #B3LYP/SVP Density=Current scf=(tight) #IOP(5/87=12)Pop=
 (MK,readradii) iop(6/33=2) iop(6/42=6)
 ----------------------------------------------------------------------

 ------------
 SOL molecule
 ------------
 Symbolic Z-matrix:
 Charge =  0 Multiplicity = 1

                         Standard orientation:
 ---------------------------------------------------------------------
 Center     Atomic      Atomic             Coordinates (Angstroms)
 Number     Number       Type             X           Y           Z
 ---------------------------------------------------------------------
      1          6           0        2.333649    2.518699    5.077038
      2          6           0        1.670099    2.289380    3.724849
      3          8           0        2.325874    2.076047    2.707967
      4          1           0        2.051176    1.718069    5.760030
      5          1           0        3.416681    2.525259    4.954512
      6          1           0        2.007713    3.475266    5.485181
      7          7           0        0.343494    2.263679    3.764312
      8          6           0       -0.419186    2.437533    2.545258
      9          6           0       -0.254566    3.870572    2.064219
     10          8           0       -0.608654    4.769927    2.821373
     11          6           0       -1.875428    2.073418    2.836257
     12          6           0       -2.694453    2.062281    1.556346
     13          8           0       -3.776777    2.696858    1.528284
     14          8           0       -2.201856    1.510886    0.553145
     15          1           0       -0.166372    2.360581    4.638524
     16          1           0        0.029486    1.662406    1.929245
     17          1           0       -2.401550    2.726842    3.534063
     18          1           0       -1.926957    1.079112    3.264160
     19          7           0        0.154702    3.977892    0.797103
     20          6           0        0.414754    5.239954    0.131241
     21          6           0       -0.355281    5.445490   -1.167451
     22          8           0       -0.178872    6.432099   -1.874899
     23          6           0        1.930602    5.371413   -0.015473
     24          6           0        2.716886    5.708360    1.242630
     25          6           0        4.197883    5.746758    0.895105
     26          6           0        5.121350    6.236575    2.011746
     27          7           0        4.811101    5.563936    3.282141
     28          1           0        0.414052    3.138217    0.289675
     29          1           0        0.060550    6.063818    0.746617
     30          1           0        2.177767    6.196755   -0.684368
     31          1           0        2.360495    4.476853   -0.466310
     32          1           0        2.453689    4.939437    1.966843
     33          1           0        2.320962    6.686531    1.511381
     34          1           0        4.382481    6.492945    0.118878
     35          1           0        4.584222    4.768661    0.623501
     36          1           0        4.958079    7.313338    2.097323
     37          1           0        6.173484    6.069378    1.767696
     38          1           0        3.854761    5.700163    3.589153
     39          1           0        4.949516    4.564279    3.211954
     40          1           0        5.277302    5.973552    4.075092
     41          7           0       -1.188169    4.479419   -1.584109
     42          6           0       -2.039256    4.581118   -2.753385
     43          6           0       -3.508798    4.347594   -2.449386
     44          8           0       -4.335575    4.212733   -3.355891
     45          6           0       -1.514131    3.842752   -3.975866
     46          6           0       -1.472804    2.332732   -3.803144
     47          8           0       -0.829784    1.585049   -4.580637
     48          8           0       -2.046434    1.869615   -2.799266
     49          1           0       -1.279875    3.609017   -1.088135
     50          1           0       -1.998990    5.616687   -3.107325
     51          1           0       -0.512187    4.265166   -4.071124
     52          1           0       -2.289717    3.940962   -4.732847
     53          7           0       -3.926469    4.344736   -1.186397
     54          6           0       -5.313286    4.448470   -0.801071
     55          6           0       -6.166460    3.235270   -1.155953
     56          8           0       -7.373953    3.320040   -1.373606
     57          1           0       -3.188813    4.503716   -0.505669
     58          1           0       -5.720405    5.411860   -1.126084
     59          1           0       -5.386481    4.456817    0.286391
     60          7           0       -5.477873    2.105133   -1.360252
     61          6           0       -6.049468    0.800489   -1.646927
     62          6           0       -6.163479   -0.024734   -0.373739
     63          8           0       -6.852680   -1.037356   -0.468081
     64          6           0       -5.229558    0.242562   -2.803501
     65          6           0       -4.279116   -0.863715   -2.379578
     66          7           0       -4.436012   -2.014744   -3.038982
     67          8           0       -3.387788   -0.682607   -1.548534
     68          1           0       -4.508558    2.191109   -1.109180
     69          1           0       -7.074461    0.952611   -1.985231
     70          1           0       -4.693621    1.027196   -3.321884
     71          1           0       -5.903507   -0.312517   -3.463107
     72          1           0       -5.152559   -2.048868   -3.752352
     73          1           0       -3.827207   -2.809252   -2.896455
     74          7           0       -5.608622    0.434897    0.753635
     75          6           0       -5.803310   -0.165825    2.058291
     76          6           0       -4.801878   -1.261457    2.381286
     77          8           0       -4.807570   -1.820938    3.472683
     78          1           0       -4.959734    1.206110    0.731802
     79          1           0       -6.823744   -0.526269    2.112104
     80          1           0       -5.657730    0.533292    2.884270
     81          7           0       -4.031921   -1.816343    1.427678
     82          6           0       -3.226978   -3.012048    1.531863
     83          6           0       -1.790150   -2.712302    1.129150
     84          8           0       -1.527685   -1.948781    0.196923
     85          6           0       -3.755156   -4.048871    0.545340
     86          6           0       -5.194350   -4.470740    0.672407
     87          6           0       -5.908243   -4.852236   -0.479513
     88          6           0       -5.806357   -4.587508    1.919328
     89          6           0       -7.181244   -5.418206   -0.388707
     90          6           0       -7.091204   -5.113570    2.050963
     91          6           0       -7.721944   -5.623442    0.896797
     92          8           0       -9.023179   -6.044949    0.945972
     93          1           0       -4.052166   -1.310331    0.562263
     94          1           0       -3.251983   -3.387286    2.552682
     95          1           0       -3.180390   -4.972246    0.693737
     96          1           0       -3.482677   -3.751059   -0.467608
     97          1           0       -5.443839   -4.679524   -1.439409
     98          1           0       -5.231902   -4.318860    2.800651
     99          1           0       -7.770212   -5.589208   -1.288860
    100          1           0       -7.541026   -5.063872    3.037720
    101          1           0       -9.388005   -5.784294    1.792826
    102          7           0       -0.811022   -3.213158    1.892990
    103          6           0        0.587746   -2.920045    1.617979
    104          6           0        1.121049   -3.812366    0.504268
    105          8           0        0.777506   -4.984192    0.401309
    106          6           0        1.448401   -3.123495    2.857648
    107          6           0        0.833122   -2.736149    4.198690
    108          6           0        2.801487   -2.422116    2.711605
    109          6           0        0.366056   -1.288987    4.368015
    110          1           0       -1.023229   -3.971437    2.516274
    111          1           0        0.539573   -1.885187    1.280713
    112          1           0        1.609512   -4.186609    3.025071
    113          1           0        1.521173   -2.998553    5.000145
    114          1           0       -0.105934   -3.244247    4.395945
    115          1           0        3.384859   -2.576630    3.622156
    116          1           0        3.325524   -2.741649    1.819090
    117          1           0        2.650414   -1.346744    2.615939
    118          1           0       -0.630717   -1.108207    3.970699
    119          1           0        0.381498   -0.970848    5.411064
    120          1           0        1.046254   -0.651036    3.816880
    121          7           0        2.063102   -3.251857   -0.262587
    122          6           0        2.813677   -3.942554   -1.294805
    123          6           0        4.331420   -3.802981   -1.167237
    124          8           0        4.745519   -2.913546   -0.432236
    125          6           0        2.354446   -3.251732   -2.573543
    126          8           0        2.793233   -1.908877   -2.575834
    127          1           0        2.303672   -2.272917   -0.204252
    128          1           0        2.667056   -5.016999   -1.320703
    129          1           0        1.279143   -3.323230   -2.678475
    130          1           0        2.825907   -3.668395   -3.467197
    131          1           0        2.299141   -1.296845   -2.021767
    132          7           0        5.135934   -4.634354   -1.823421
    133          6           0        6.577843   -4.514787   -1.757082
    134          6           0        7.129733   -3.094463   -1.821875
    135          8           0        8.007970   -2.834948   -1.014935
    136          6           0        7.214328   -5.541204   -2.695088
    137          1           0        4.683812   -5.413722   -2.287610
    138          1           0        6.938533   -4.800893   -0.767816
    139          1           0        8.233499   -5.793536   -2.409925
    140          1           0        6.566440   -6.415430   -2.714330
    141          1           0        7.384224   -5.281060   -3.749963
    142          7           0        6.706345   -2.138982   -2.653320
    143          6           0        7.330509   -0.838697   -2.753707
    144          6           0        7.053863   -0.092626   -1.454421
    145          8           0        7.958330    0.589905   -0.970078
    146          6           0        6.757518    0.002654   -3.891736
    147          1           0        6.091067   -2.416994   -3.397727
    148          1           0        8.392729   -0.963403   -2.960437
    149          1           0        7.251236   -0.113321   -4.852408
    150          1           0        5.663130    0.078238   -3.893698
    151          1           0        6.946633    1.045084   -3.623826
    152          7           0        5.848402   -0.184026   -0.877178
    153          6           0        5.527582    0.360452    0.425096
    154          6           0        6.286084   -0.346302    1.539266
    155          8           0        6.738359    0.350459    2.456529
    156          6           0        4.019720    0.228900    0.650145
    157          6           0        3.230698    1.292885   -0.106877
    158          6           0        1.836247    0.784330   -0.447874
    159          8           0        0.859157    1.571959   -0.474994
    160          8           0        1.631631   -0.418704   -0.702904
    161          1           0        5.168930   -0.831221   -1.240162
    162          1           0        5.767409    1.420455    0.452965
    163          1           0        3.808631    0.368796    1.713522
    164          1           0        3.733923   -0.792198    0.392116
    165          1           0        3.688442    1.385981   -1.081508
    166          1           0        3.318448    2.243936    0.429127
    167          7           0        6.491520   -1.666530    1.481017
    168          6           0        7.194698   -2.371467    2.535723
    169          1           0        6.484466   -2.964420    3.111802
    170          1           0        7.944240   -3.029434    2.096750
    171          1           0        7.682867   -1.651655    3.192761
    172          1           0        6.312760   -2.225289    0.664969
    173         20           0       -0.885336    0.001451   -1.420111
    174          8           0       -0.839821   -1.912745   -3.199936
    175          1           0       -1.333682   -2.726326   -3.209276
    176          1           0       -0.161978   -2.032980   -3.867897
 ---------------------------------------------------------------------

 SCF Done:  E(RB3LYP) =  -5333.61954666     A.U. after   18 cycles

 The electronic state is 1-A.
 Alpha  occ. eigenvalues -- -145.37433 -19.19983 -19.14457 -19.13911 -19.13769
 Alpha  occ. eigenvalues --  -19.12935 -19.12575 -19.12199 -19.11111 -19.11053
 Alpha  occ. eigenvalues --  -19.10981 -19.10935 -19.09188 -19.08323 -19.07816
 Alpha  occ. eigenvalues --  -19.07123 -19.06608 -19.06302 -19.04353 -19.04160
 Alpha  occ. eigenvalues --  -19.03847 -19.03233 -19.02942 -19.01000 -15.43200
 Alpha  occ. eigenvalues --  -14.57183 -14.40415 -14.37538 -14.37204 -14.36984
 Alpha  occ. eigenvalues --  -14.36534 -14.36256 -14.34627 -14.34222 -14.33075
 Alpha  occ. eigenvalues --  -14.32843 -14.32805 -14.31939 -14.30950 -14.29387
 Alpha  occ. eigenvalues --  -12.56816 -12.56777 -12.56758 -10.34232 -10.32153
 Alpha  occ. eigenvalues --  -10.30780 -10.30635 -10.30410 -10.30236 -10.29642
 Alpha  occ. eigenvalues --  -10.29548 -10.27469 -10.27453 -10.26984 -10.26964
 Alpha  occ. eigenvalues --  -10.26845 -10.26342 -10.26065 -10.25869 -10.25814
 Alpha  occ. eigenvalues --  -10.25011 -10.24351 -10.24214 -10.23977 -10.23751
 Alpha  occ. eigenvalues --  -10.23672 -10.23433 -10.23405 -10.23230 -10.22952
 Alpha  occ. eigenvalues --  -10.22674 -10.22229 -10.22198 -10.21659 -10.21183
 Alpha  occ. eigenvalues --  -10.20958 -10.20562 -10.20540 -10.20269 -10.20188
 Alpha  occ. eigenvalues --  -10.20014 -10.19450 -10.19350 -10.19110 -10.18926
 Alpha  occ. eigenvalues --  -10.18454 -10.18222 -10.18024 -10.17987 -10.17927
 Alpha  occ. eigenvalues --  -10.17902 -10.17810 -10.17743 -10.17537 -10.17373
 Alpha  occ. eigenvalues --  -10.16304 -10.13746  -1.80069  -1.12554  -1.08558
 Alpha  occ. eigenvalues --   -1.07766  -1.07651  -1.07522  -1.06267  -1.05658
 Alpha  occ. eigenvalues --   -1.05572  -1.05109  -1.04863  -1.03855  -1.03384
 Alpha  occ. eigenvalues --   -1.03297  -1.02287  -1.01917  -1.01490  -1.01002
 Alpha  occ. eigenvalues --   -1.00479  -0.99663  -0.99238  -0.98209  -0.97977
 Alpha  occ. eigenvalues --   -0.96961  -0.96888  -0.96430  -0.96228  -0.94199
 Alpha  occ. eigenvalues --   -0.94023  -0.93504  -0.93464  -0.92265  -0.91724
 Alpha  occ. eigenvalues --   -0.91507  -0.90185  -0.89486  -0.89053  -0.88851
 Alpha  occ. eigenvalues --   -0.88386  -0.88278  -0.87503  -0.86331  -0.86130
 Alpha  occ. eigenvalues --   -0.83583  -0.82984  -0.82022  -0.81850  -0.79938
 Alpha  occ. eigenvalues --   -0.78625  -0.78539  -0.78231  -0.77863  -0.76222
 Alpha  occ. eigenvalues --   -0.75946  -0.74895  -0.73768  -0.73503  -0.73076
 Alpha  occ. eigenvalues --   -0.72853  -0.72602  -0.72536  -0.71344  -0.70078
 Alpha  occ. eigenvalues --   -0.70006  -0.69899  -0.69104  -0.68668  -0.68207
 Alpha  occ. eigenvalues --   -0.67622  -0.66225  -0.65448  -0.65150  -0.65020
 Alpha  occ. eigenvalues --   -0.64712  -0.63739  -0.63306  -0.62078  -0.61577
 Alpha  occ. eigenvalues --   -0.61319  -0.60901  -0.60888  -0.60795  -0.60625
 Alpha  occ. eigenvalues --   -0.60589  -0.59638  -0.59159  -0.59087  -0.58765
 Alpha  occ. eigenvalues --   -0.58329  -0.57849  -0.57583  -0.57053  -0.56901
 Alpha  occ. eigenvalues --   -0.56259  -0.56088  -0.55941  -0.55706  -0.55379
 Alpha  occ. eigenvalues --   -0.55183  -0.54946  -0.54305  -0.54136  -0.53558
 Alpha  occ. eigenvalues --   -0.53347  -0.53185  -0.52856  -0.52602  -0.52246
 Alpha  occ. eigenvalues --   -0.51833  -0.51682  -0.51451  -0.50910  -0.50398
 Alpha  occ. eigenvalues --   -0.50119  -0.49876  -0.49744  -0.49293  -0.49072
 Alpha  occ. eigenvalues --   -0.49023  -0.48810  -0.48650  -0.48152  -0.48121
 Alpha  occ. eigenvalues --   -0.47857  -0.47723  -0.47535  -0.47063  -0.47029
 Alpha  occ. eigenvalues --   -0.46681  -0.46563  -0.46433  -0.46307  -0.46187
 Alpha  occ. eigenvalues --   -0.46049  -0.45962  -0.45498  -0.45414  -0.45276
 Alpha  occ. eigenvalues --   -0.45062  -0.44987  -0.44905  -0.44657  -0.44389
 Alpha  occ. eigenvalues --   -0.44236  -0.44024  -0.43847  -0.43737  -0.43488
 Alpha  occ. eigenvalues --   -0.43479  -0.43262  -0.43138  -0.43028  -0.42690
 Alpha  occ. eigenvalues --   -0.42576  -0.42382  -0.42171  -0.42060  -0.42011
 Alpha  occ. eigenvalues --   -0.41853  -0.41722  -0.41593  -0.41477  -0.41324
 Alpha  occ. eigenvalues --   -0.41086  -0.41049  -0.40741  -0.40624  -0.40488
 Alpha  occ. eigenvalues --   -0.40337  -0.40108  -0.39788  -0.39734  -0.39633
 Alpha  occ. eigenvalues --   -0.39581  -0.39522  -0.39367  -0.39272  -0.39123
 Alpha  occ. eigenvalues --   -0.38976  -0.38962  -0.38831  -0.38749  -0.38700
 Alpha  occ. eigenvalues --   -0.38539  -0.38054  -0.37773  -0.37644  -0.37590
 Alpha  occ. eigenvalues --   -0.37514  -0.37422  -0.37281  -0.37195  -0.36938
 Alpha  occ. eigenvalues --   -0.36815  -0.36671  -0.36597  -0.36304  -0.36284
 Alpha  occ. eigenvalues --   -0.35940  -0.35708  -0.35464  -0.35293  -0.35073
 Alpha  occ. eigenvalues --   -0.34978  -0.34929  -0.34799  -0.34420  -0.34272
 Alpha  occ. eigenvalues --   -0.34146  -0.33949  -0.33785  -0.33759  -0.33459
 Alpha  occ. eigenvalues --   -0.33140  -0.32677  -0.32578  -0.32317  -0.32183
 Alpha  occ. eigenvalues --   -0.31518  -0.31382  -0.31280  -0.30777  -0.30224
 Alpha  occ. eigenvalues --   -0.30133  -0.29794  -0.29394  -0.29325  -0.29241
 Alpha  occ. eigenvalues --   -0.28605  -0.28575  -0.28410  -0.27870  -0.27672
 Alpha  occ. eigenvalues --   -0.27184  -0.26774  -0.26512  -0.26428  -0.26304
 Alpha  occ. eigenvalues --   -0.26183  -0.25115  -0.24740  -0.24596  -0.24268
 Alpha  occ. eigenvalues --   -0.23869  -0.23792  -0.23375  -0.23349  -0.23339
 Alpha  occ. eigenvalues --   -0.22538  -0.22505  -0.21632  -0.21503  -0.20986
 Alpha  occ. eigenvalues --   -0.20749  -0.20545  -0.19997  -0.19742  -0.19508
 Alpha  occ. eigenvalues --   -0.19333  -0.18938  -0.16902
 Alpha virt. eigenvalues --   -0.09088  -0.03315  -0.03072  -0.02879  -0.01695
 Alpha virt. eigenvalues --   -0.00926  -0.00635  -0.00562  -0.00416  -0.00071
 Alpha virt. eigenvalues --    0.00356   0.00843   0.01098   0.01268   0.01335

 Mulliken charges:
               1
     1  C    0.030722
     2  C    0.049082
     3  O   -0.296017
     4  H    0.047610
     5  H   -0.000460
     6  H    0.021151
     7  N   -0.139723
     8  C    0.111251
     9  C    0.063821
    10  O   -0.290401
    11  C    0.097805
    12  C    0.094440
    13  O   -0.391520
    14  O   -0.422929
    15  H    0.123296
    16  H   -0.000050
    17  H   -0.002159
    18  H   -0.000509
    19  N   -0.156903
    20  C    0.177135
    21  C    0.063006
    22  O   -0.282179
    23  C    0.009094
    24  C   -0.027567
    25  C   -0.026911
    26  C    0.043991
    27  N    0.066866
    28  H    0.161344
    29  H    0.014099
    30  H    0.008910
    31  H    0.008395
    32  H    0.011177
    33  H    0.013641
    34  H    0.048352
    35  H    0.047490
    36  H    0.065628
    37  H    0.080243
    38  H    0.184176
    39  H    0.209426
    40  H    0.182328
    41  N   -0.168408
    42  C    0.121234
    43  C    0.047344
    44  O   -0.294298
    45  C    0.117220
    46  C    0.071544
    47  O   -0.386221
    48  O   -0.458645
    49  H    0.135827
    50  H    0.024548
    51  H    0.006221
    52  H    0.027670
    53  N   -0.143594
    54  C    0.232667
    55  C    0.025134
    56  O   -0.290942
    57  H    0.116374
    58  H    0.014813
    59  H    0.028331
    60  N   -0.176193
    61  C    0.126301
    62  C    0.043002
    63  O   -0.293756
    64  C    0.161573
    65  C    0.047139
    66  N   -0.031938
    67  O   -0.356857
    68  H    0.145825
    69  H    0.033810
    70  H    0.083658
    71  H   -0.030518
    72  H    0.136908
    73  H    0.113848
    74  N   -0.167524
    75  C    0.245130
    76  C    0.015059
    77  O   -0.314351
    78  H    0.146746
    79  H    0.042453
    80  H    0.031223
    81  N   -0.137978
    82  C    0.137820
    83  C    0.141507
    84  O   -0.370186
    85  C    0.123723
    86  C    0.017466
    87  C    0.011800
    88  C   -0.012176
    89  C   -0.005567
    90  C   -0.047810
    91  C    0.175125
    92  O   -0.208723
    93  H    0.151559
    94  H    0.002170
    95  H    0.008629
    96  H   -0.045302
    97  H   -0.072633
    98  H   -0.019163
    99  H   -0.018482
   100  H   -0.030231
   101  H    0.168758
   102  N   -0.113478
   103  C    0.126918
   104  C    0.082642
   105  O   -0.281800
   106  C   -0.062266
   107  C    0.032354
   108  C    0.039901
   109  C   -0.014400
   110  H    0.130339
   111  H    0.007916
   112  H   -0.011621
   113  H   -0.000030
   114  H   -0.021199
   115  H    0.005592
   116  H    0.024963
   117  H    0.009321
   118  H    0.028705
   119  H    0.000463
   120  H    0.006978
   121  N   -0.156655
   122  C    0.074469
   123  C    0.095150
   124  O   -0.289548
   125  C    0.285785
   126  O   -0.364998
   127  H    0.163204
   128  H    0.009210
   129  H   -0.042304
   130  H   -0.022166
   131  H    0.177586
   132  N   -0.103415
   133  C    0.125673
   134  C    0.034932
   135  O   -0.265424
   136  C    0.027891
   137  H    0.124946
   138  H    0.023982
   139  H    0.041387
   140  H    0.013502
   141  H    0.019043
   142  N   -0.108254
   143  C    0.116014
   144  C    0.050391
   145  O   -0.274805
   146  C    0.037487
   147  H    0.108033
   148  H    0.012220
   149  H    0.028655
   150  H    0.021049
   151  H    0.019325
   152  N   -0.146208
   153  C    0.166418
   154  C    0.069936
   155  O   -0.314354
   156  C   -0.075925
   157  C    0.132777
   158  C    0.171942
   159  O   -0.419306
   160  O   -0.455797
   161  H    0.124094
   162  H   -0.040206
   163  H    0.046971
   164  H    0.012846
   165  H    0.001067
   166  H    0.008406
   167  N   -0.164024
   168  C    0.120916
   169  H    0.004565
   170  H    0.020874
   171  H    0.032033
   172  H    0.139418
   173  Ca   1.281089
   174  O   -0.268456
   175  H    0.179067
   176  H    0.202381
 Sum of Mulliken charges =   0.00000

 Dipole moment (field-independent basis, Debye):
    X=             25.5149    Y=             -2.3306    Z=              9.4717  Tot=             27.3158
 Quadrupole moment (field-independent basis, Debye-Ang):
   XX=           -641.3190   YY=           -464.8522   ZZ=           -513.7856
   XY=            108.2579   XZ=              4.4543   YZ=            127.6794

 ESP charges:
               1
     1  C   -0.471673
     2  C    0.936754
     3  O   -0.667428
     4  H    0.143890
     5  H    0.083711
     6  H    0.105173
     7  N   -0.957369
     8  C    0.426837
     9  C    0.526133
    10  O   -0.571093
    11  C   -0.293463
    12  C    0.792061
    13  O   -0.649268
    14  O   -0.938823
    15  H    0.402057
    16  H    0.067547
    17  H    0.062686
    18  H    0.077995
    19  N   -0.391597
    20  C   -0.036520
    21  C    0.524251
    22  O   -0.562670
    23  C    0.068906
    24  C    0.111452
    25  C   -0.086332
    26  C    0.076770
    27  N   -0.344894
    28  H    0.421543
    29  H    0.078258
    30  H    0.009364
    31  H   -0.042234
    32  H   -0.114403
    33  H    0.007535
    34  H    0.070615
    35  H    0.036226
    36  H    0.058920
    37  H    0.078197
    38  H    0.305926
    39  H    0.345445
    40  H    0.315718
    41  N   -0.356919
    42  C    0.137937
    43  C    0.372331
    44  O   -0.503247
    45  C   -0.514708
    46  C    0.880396
    47  O   -0.739386
    48  O   -0.752940
    49  H    0.230087
    50  H    0.106211
    51  H    0.142136
    52  H    0.150174
    53  N   -0.295250
    54  C   -0.035219
    55  C    0.406357
    56  O   -0.552208
    57  H    0.200428
    58  H    0.079119
    59  H    0.081396
    60  N   -0.244138
    61  C    0.149462
    62  C    0.274392
    63  O   -0.494424
    64  C   -0.324724
    65  C    0.647302
    66  N   -0.743790
    67  O   -0.598403
    68  H    0.377750
    69  H    0.099119
    70  H    0.150327
    71  H    0.071196
    72  H    0.365815
    73  H    0.358846
    74  N   -0.047306
    75  C   -0.347864
    76  C    0.668543
    77  O   -0.600220
    78  H    0.091273
    79  H    0.177766
    80  H    0.135497
    81  N   -0.521034
    82  C    0.102606
    83  C    0.650024
    84  O   -0.591118
    85  C   -0.215502
    86  C    0.079201
    87  C   -0.179728
    88  C   -0.092558
    89  C   -0.204025
    90  C   -0.344410
    91  C    0.349287
    92  O   -0.550641
    93  H    0.413565
    94  H    0.070264
    95  H    0.051854
    96  H    0.087796
    97  H    0.108979
    98  H    0.145688
    99  H    0.158437
   100  H    0.161011
   101  H    0.409835
   102  N   -0.524025
   103  C   -0.063180
   104  C    0.421150
   105  O   -0.538692
   106  C    0.428347
   107  C   -0.251500
   108  C   -0.501978
   109  C    0.117138
   110  H    0.303378
   111  H    0.125559
   112  H   -0.033004
   113  H    0.061110
   114  H    0.027968
   115  H    0.117042
   116  H    0.090253
   117  H    0.155973
   118  H   -0.014819
   119  H   -0.006648
   120  H   -0.036960
   121  N    0.157543
   122  C   -0.231743
   123  C    0.643251
   124  O   -0.517665
   125  C    0.242479
   126  O   -0.585709
   127  H   -0.254943
   128  H    0.084552
   129  H   -0.031012
   130  H    0.011309
   131  H    0.361835
   132  N   -0.514256
   133  C    0.161968
   134  C    0.572819
   135  O   -0.541857
   136  C   -0.345403
   137  H    0.318000
   138  H    0.060043
   139  H    0.122869
   140  H    0.101963
   141  H    0.089274
   142  N   -0.500826
   143  C    0.205544
   144  C    0.247417
   145  O   -0.492648
   146  C   -0.364238
   147  H    0.287923
   148  H    0.090749
   149  H    0.112264
   150  H    0.089212
   151  H    0.119862
   152  N    0.015200
   153  C   -0.397561
   154  C    0.603845
   155  O   -0.592716
   156  C    0.149780
   157  C   -0.125319
   158  C    0.788672
   159  O   -0.856293
   160  O   -0.532336
   161  H    0.174449
   162  H    0.148887
   163  H    0.010883
   164  H   -0.062490
   165  H   -0.003206
   166  H    0.105998
   167  N   -0.137468
   168  C   -0.199168
   169  H    0.051706
   170  H    0.078500
   171  H    0.101553
   172  H    0.236283
   173  Ca   1.535468
   174  O   -0.844110
   175  H    0.417577
   176  H    0.455328
 Sum of ESP charges =   0.00000

 Normal termination of Gaussian 09 at Mon Sep 16 18:42:58 2019.
