 Gaussian 09, Revision D.01,
 Gaussian 09:  ES64L-G09RevD.01 24-Apr-2013

 ----------------------------------------------------------------------
 #maxdisk=50GB #B3LYP/SVP Density=Current scf=(tight) #IOP(5/87=12)Pop=
 (MK,readradii) iop(6/33=2) iop(6/42=6)
 ----------------------------------------------------------------------

 ------------
 SOL molecule
 ------------
 Symbolic Z-matrix:
 Charge =  0 Multiplicity = 1

                         Standard orientation:
 ---------------------------------------------------------------------
 Center     Atomic      Atomic             Coordinates (Angstroms)
 Number     Number       Type             X           Y           Z
 ---------------------------------------------------------------------
      1          6           0        2.152060    3.063449    4.950699
      2          6           0        1.490453    2.709974    3.628529
      3          8           0        2.120082    2.744058    2.568291
      4          1           0        3.234981    3.054539    4.828174
      5          1           0        1.830257    4.056811    5.265196
      6          1           0        1.866365    2.332790    5.706901
      7          7           0        0.158437    2.578784    3.643386
      8          6           0       -0.710765    2.408900    2.500658
      9          6           0       -0.935367    3.751868    1.814734
     10          8           0       -2.040608    4.263986    1.995508
     11          6           0       -1.923765    1.641805    3.000653
     12          6           0       -2.896769    1.094090    1.970035
     13          8           0       -2.492393    1.111042    0.782646
     14          8           0       -4.041884    0.833420    2.366472
     15          1           0       -0.218426    2.507752    4.578549
     16          1           0       -0.311383    1.720382    1.750633
     17          1           0       -2.513951    2.307442    3.632482
     18          1           0       -1.510308    0.870350    3.661948
     19          7           0       -0.057340    4.235934    0.936470
     20          6           0       -0.143750    5.510584    0.244587
     21          6           0       -1.475295    5.835418   -0.409990
     22          8           0       -2.184667    6.755010   -0.016491
     23          6           0        0.909296    5.601079   -0.856097
     24          6           0        2.244436    6.080278   -0.291058
     25          6           0        3.319392    5.836264   -1.344588
     26          6           0        4.745926    6.210967   -0.952545
     27          7           0        4.952574    7.662137   -0.916446
     28          1           0        0.800046    3.703824    0.892327
     29          1           0       -0.028974    6.349162    0.944381
     30          1           0        0.521807    6.357077   -1.526707
     31          1           0        1.007103    4.604438   -1.291459
     32          1           0        2.359952    5.353440    0.517684
     33          1           0        2.198129    7.127251   -0.010338
     34          1           0        2.998659    6.427189   -2.199303
     35          1           0        3.349404    4.785235   -1.621060
     36          1           0        5.382169    5.744741   -1.711708
     37          1           0        5.012078    5.601154   -0.089822
     38          1           0        5.854597    7.938490   -0.535155
     39          1           0        4.906365    8.130286   -1.800528
     40          1           0        4.291281    8.053915   -0.253874
     41          7           0       -1.961583    4.897878   -1.240498
     42          6           0       -3.237864    5.055092   -1.913766
     43          6           0       -4.482782    4.710617   -1.109021
     44          8           0       -5.573679    4.790366   -1.662993
     45          6           0       -3.204651    4.285489   -3.227923
     46          6           0       -2.750032    2.844525   -3.165930
     47          8           0       -2.870991    2.163949   -4.209523
     48          8           0       -2.595790    2.312338   -2.046205
     49          1           0       -1.387779    4.191520   -1.667941
     50          1           0       -3.287340    6.098596   -2.237264
     51          1           0       -2.496035    4.717808   -3.934368
     52          1           0       -4.192583    4.345759   -3.687987
     53          7           0       -4.309314    4.245413    0.124913
     54          6           0       -5.414042    3.771946    0.944062
     55          6           0       -6.200990    2.590689    0.399045
     56          8           0       -7.425145    2.584947    0.570838
     57          1           0       -3.386177    4.171153    0.534918
     58          1           0       -6.074409    4.597699    1.200475
     59          1           0       -5.027603    3.413728    1.896399
     60          7           0       -5.490084    1.680030   -0.262628
     61          6           0       -5.951848    0.600454   -1.111151
     62          6           0       -6.238377   -0.686230   -0.354682
     63          8           0       -6.820258   -1.637203   -0.881906
     64          6           0       -5.205132    0.453902   -2.436269
     65          6           0       -4.029035   -0.511592   -2.354309
     66          7           0       -3.658369   -1.067499   -3.511753
     67          8           0       -3.458830   -0.730058   -1.293348
     68          1           0       -4.495900    1.856353   -0.188421
     69          1           0       -6.910376    1.019793   -1.397996
     70          1           0       -4.920613    1.431692   -2.836115
     71          1           0       -5.921849    0.017614   -3.130581
     72          1           0       -4.171563   -0.817753   -4.347611
     73          1           0       -3.034380   -1.851112   -3.467165
     74          7           0       -5.906624   -0.743822    0.934008
     75          6           0       -6.208379   -1.803464    1.872466
     76          6           0       -5.066308   -2.796896    2.056218
     77          8           0       -5.215077   -3.655281    2.926185
     78          1           0       -5.365300    0.037999    1.285326
     79          1           0       -7.023982   -2.413461    1.480555
     80          1           0       -6.433855   -1.396827    2.855729
     81          7           0       -4.004859   -2.626605    1.275943
     82          6           0       -2.847096   -3.499561    1.163994
     83          6           0       -1.546541   -2.704985    1.238176
     84          8           0       -1.465031   -1.577752    0.743704
     85          6           0       -2.950874   -4.277623   -0.142279
     86          6           0       -4.233187   -5.045340   -0.403399
     87          6           0       -4.898555   -4.765489   -1.606049
     88          6           0       -4.586247   -6.177099    0.339952
     89          6           0       -5.967442   -5.602579   -1.962227
     90          6           0       -5.661893   -6.990945   -0.019965
     91          6           0       -6.415890   -6.662805   -1.163344
     92          8           0       -7.446617   -7.485808   -1.500935
     93          1           0       -3.988229   -1.704339    0.854817
     94          1           0       -2.757548   -4.210943    1.982051
     95          1           0       -2.041839   -4.853773   -0.312885
     96          1           0       -2.931516   -3.529954   -0.931656
     97          1           0       -4.559216   -3.980828   -2.262597
     98          1           0       -4.037796   -6.464047    1.228469
     99          1           0       -6.416666   -5.366584   -2.918994
    100          1           0       -5.944800   -7.877331    0.544023
    101          1           0       -7.626583   -8.142248   -0.816831
    102          7           0       -0.490556   -3.280814    1.820170
    103          6           0        0.889926   -2.842706    1.860561
    104          6           0        1.736071   -3.789496    1.023944
    105          8           0        1.915269   -4.958584    1.348475
    106          6           0        1.487439   -2.630535    3.249252
    107          6           0        0.662924   -1.770318    4.203925
    108          6           0        2.916911   -2.084399    3.204028
    109          6           0        1.067315   -1.807933    5.672683
    110          1           0       -0.697971   -4.166766    2.250364
    111          1           0        0.952536   -1.805250    1.537503
    112          1           0        1.623721   -3.590077    3.750556
    113          1           0       -0.339857   -2.158962    4.082323
    114          1           0        0.733346   -0.738514    3.858350
    115          1           0        3.259467   -2.059689    4.235989
    116          1           0        3.661336   -2.709035    2.708688
    117          1           0        2.989449   -1.064968    2.831205
    118          1           0        1.267419   -2.841166    5.948164
    119          1           0        1.940638   -1.185464    5.850555
    120          1           0        0.203696   -1.453221    6.229945
    121          7           0        2.309857   -3.151113   -0.003060
    122          6           0        3.292139   -3.713449   -0.915584
    123          6           0        4.704026   -3.548382   -0.356096
    124          8           0        5.020894   -2.769342    0.544233
    125          6           0        3.088281   -3.077753   -2.291678
    126          8           0        3.831916   -3.609988   -3.361180
    127          1           0        2.031597   -2.227310   -0.282632
    128          1           0        3.026749   -4.765920   -0.961111
    129          1           0        3.448281   -2.053725   -2.192861
    130          1           0        2.005692   -3.061627   -2.427101
    131          1           0        3.307300   -4.373882   -3.631261
    132          7           0        5.647582   -4.307121   -0.921884
    133          6           0        7.068158   -4.201689   -0.668611
    134          6           0        7.658945   -2.855817   -1.072342
    135          8           0        8.402434   -2.312128   -0.266906
    136          6           0        7.841099   -5.350771   -1.319973
    137          1           0        5.285098   -4.688627   -1.782383
    138          1           0        7.170131   -4.217239    0.414330
    139          1           0        7.606675   -6.286418   -0.828943
    140          1           0        7.645612   -5.479417   -2.381404
    141          1           0        8.911601   -5.146272   -1.208593
    142          7           0        7.204744   -2.277534   -2.192248
    143          6           0        7.633222   -0.968500   -2.665255
    144          6           0        7.359193    0.081364   -1.607146
    145          8           0        8.251337    0.863699   -1.298551
    146          6           0        6.815611   -0.636014   -3.907296
    147          1           0        6.789432   -2.787649   -2.954415
    148          1           0        8.716422   -0.992542   -2.794099
    149          1           0        7.133871   -1.199906   -4.778924
    150          1           0        5.755766   -0.819902   -3.722599
    151          1           0        6.975635    0.435182   -4.036261
    152          7           0        6.162425    0.019044   -1.007512
    153          6           0        5.593469    0.952054   -0.062376
    154          6           0        6.345343    0.944907    1.261721
    155          8           0        6.371342    1.926146    1.992608
    156          6           0        4.116437    0.626337    0.128634
    157          6           0        3.281731    1.092973   -1.050865
    158          6           0        1.812256    0.760116   -0.837677
    159          8           0        1.459688   -0.426109   -0.968702
    160          8           0        1.028504    1.721895   -0.689306
    161          1           0        5.537245   -0.724616   -1.290918
    162          1           0        5.599224    1.970611   -0.480357
    163          1           0        3.769446    1.107582    1.046567
    164          1           0        3.988619   -0.438980    0.316150
    165          1           0        3.653509    0.577934   -1.929510
    166          1           0        3.388511    2.176000   -1.090247
    167          7           0        6.929558   -0.207012    1.602566
    168          6           0        7.845438   -0.464626    2.704473
    169          1           0        8.840752   -0.668516    2.309156
    170          1           0        7.885477    0.408948    3.355784
    171          1           0        7.497677   -1.327430    3.272903
    172          1           0        6.849751   -0.941609    0.924334
    173         20           0       -1.160255    0.415734   -1.080940
    174          8           0       -1.032412   -1.879610   -2.476703
    175          1           0       -0.685066   -1.954886   -3.358738
    176          1           0       -0.797459   -2.702852   -2.055314
 ---------------------------------------------------------------------

 SCF Done:  E(RB3LYP) =  -5333.59263570     A.U. after   18 cycles

 The electronic state is 1-A.
 Alpha  occ. eigenvalues -- -145.36462 -19.20334 -19.20087 -19.14434 -19.12959
 Alpha  occ. eigenvalues --  -19.12539 -19.11341 -19.10895 -19.10815 -19.10650
 Alpha  occ. eigenvalues --  -19.10269 -19.09736 -19.09123 -19.08170 -19.07466
 Alpha  occ. eigenvalues --  -19.07401 -19.04487 -19.04362 -19.04153 -19.03560
 Alpha  occ. eigenvalues --  -19.03135 -19.02872 -19.02117 -19.01873 -15.42237
 Alpha  occ. eigenvalues --  -14.60117 -14.38661 -14.38338 -14.36867 -14.36770
 Alpha  occ. eigenvalues --  -14.36721 -14.35344 -14.35006 -14.34212 -14.32947
 Alpha  occ. eigenvalues --  -14.32352 -14.31094 -14.28872 -14.28125 -14.27993
 Alpha  occ. eigenvalues --  -12.55851 -12.55817 -12.55783 -10.35358 -10.31163
 Alpha  occ. eigenvalues --  -10.30879 -10.29606 -10.29446 -10.29343 -10.29116
 Alpha  occ. eigenvalues --  -10.28476 -10.28470 -10.27915 -10.27550 -10.26948
 Alpha  occ. eigenvalues --  -10.26445 -10.26306 -10.25987 -10.25952 -10.25492
 Alpha  occ. eigenvalues --  -10.24991 -10.23690 -10.23564 -10.23297 -10.23261
 Alpha  occ. eigenvalues --  -10.23154 -10.23079 -10.22631 -10.22558 -10.22445
 Alpha  occ. eigenvalues --  -10.22266 -10.22253 -10.22080 -10.22032 -10.21382
 Alpha  occ. eigenvalues --  -10.21167 -10.20515 -10.19676 -10.19559 -10.19264
 Alpha  occ. eigenvalues --  -10.18753 -10.18587 -10.18368 -10.18241 -10.17524
 Alpha  occ. eigenvalues --  -10.17492 -10.17293 -10.17264 -10.17226 -10.17078
 Alpha  occ. eigenvalues --  -10.17026 -10.16619 -10.16520 -10.16089 -10.15836
 Alpha  occ. eigenvalues --  -10.15179 -10.14316  -1.79236  -1.15066  -1.08011
 Alpha  occ. eigenvalues --   -1.07370  -1.07064  -1.06799  -1.06312  -1.06066
 Alpha  occ. eigenvalues --   -1.05364  -1.04742  -1.04069  -1.03476  -1.03301
 Alpha  occ. eigenvalues --   -1.03033  -1.02566  -1.02029  -1.01517  -1.00550
 Alpha  occ. eigenvalues --   -1.00183  -0.98118  -0.97853  -0.97357  -0.96645
 Alpha  occ. eigenvalues --   -0.96124  -0.96060  -0.95519  -0.95060  -0.94416
 Alpha  occ. eigenvalues --   -0.94323  -0.93673  -0.93292  -0.92062  -0.91978
 Alpha  occ. eigenvalues --   -0.89744  -0.89446  -0.89242  -0.89198  -0.88936
 Alpha  occ. eigenvalues --   -0.88705  -0.87523  -0.86363  -0.85272  -0.84353
 Alpha  occ. eigenvalues --   -0.83457  -0.82894  -0.82576  -0.81800  -0.80836
 Alpha  occ. eigenvalues --   -0.79491  -0.78428  -0.77900  -0.77286  -0.76557
 Alpha  occ. eigenvalues --   -0.74814  -0.74470  -0.74120  -0.73570  -0.73538
 Alpha  occ. eigenvalues --   -0.72372  -0.72314  -0.71936  -0.71780  -0.70358
 Alpha  occ. eigenvalues --   -0.69809  -0.69543  -0.69090  -0.68326  -0.68060
 Alpha  occ. eigenvalues --   -0.66960  -0.66775  -0.65247  -0.64541  -0.64181
 Alpha  occ. eigenvalues --   -0.63833  -0.63318  -0.63175  -0.62956  -0.62182
 Alpha  occ. eigenvalues --   -0.61813  -0.61189  -0.60628  -0.60611  -0.60225
 Alpha  occ. eigenvalues --   -0.59723  -0.59640  -0.59526  -0.58596  -0.57971
 Alpha  occ. eigenvalues --   -0.57224  -0.57067  -0.56905  -0.56696  -0.56619
 Alpha  occ. eigenvalues --   -0.55919  -0.55040  -0.54943  -0.54319  -0.54074
 Alpha  occ. eigenvalues --   -0.53903  -0.53821  -0.53718  -0.53601  -0.53244
 Alpha  occ. eigenvalues --   -0.53026  -0.52655  -0.52460  -0.51901  -0.51658
 Alpha  occ. eigenvalues --   -0.51499  -0.50738  -0.50677  -0.50519  -0.50271
 Alpha  occ. eigenvalues --   -0.49986  -0.49947  -0.49618  -0.49263  -0.49002
 Alpha  occ. eigenvalues --   -0.48679  -0.48578  -0.48449  -0.47949  -0.47613
 Alpha  occ. eigenvalues --   -0.47314  -0.47247  -0.46966  -0.46473  -0.46403
 Alpha  occ. eigenvalues --   -0.46248  -0.46007  -0.45896  -0.45828  -0.45685
 Alpha  occ. eigenvalues --   -0.45520  -0.45445  -0.45208  -0.45093  -0.45041
 Alpha  occ. eigenvalues --   -0.44959  -0.44407  -0.44133  -0.44094  -0.43912
 Alpha  occ. eigenvalues --   -0.43540  -0.43422  -0.43186  -0.43051  -0.43007
 Alpha  occ. eigenvalues --   -0.42786  -0.42704  -0.42675  -0.42455  -0.42209
 Alpha  occ. eigenvalues --   -0.42132  -0.42043  -0.41823  -0.41668  -0.41544
 Alpha  occ. eigenvalues --   -0.41430  -0.41205  -0.41143  -0.41056  -0.40917
 Alpha  occ. eigenvalues --   -0.40602  -0.40439  -0.40378  -0.40294  -0.40221
 Alpha  occ. eigenvalues --   -0.39961  -0.39787  -0.39672  -0.39603  -0.39551
 Alpha  occ. eigenvalues --   -0.39395  -0.39299  -0.39194  -0.38981  -0.38948
 Alpha  occ. eigenvalues --   -0.38869  -0.38690  -0.38620  -0.38246  -0.38036
 Alpha  occ. eigenvalues --   -0.37951  -0.37878  -0.37580  -0.37535  -0.37205
 Alpha  occ. eigenvalues --   -0.37145  -0.37096  -0.36989  -0.36841  -0.36552
 Alpha  occ. eigenvalues --   -0.36446  -0.36220  -0.36062  -0.35958  -0.35869
 Alpha  occ. eigenvalues --   -0.35582  -0.35317  -0.35079  -0.34972  -0.34659
 Alpha  occ. eigenvalues --   -0.34397  -0.34274  -0.34053  -0.33985  -0.33852
 Alpha  occ. eigenvalues --   -0.33653  -0.33446  -0.33040  -0.32650  -0.32156
 Alpha  occ. eigenvalues --   -0.31738  -0.31645  -0.31445  -0.31258  -0.31174
 Alpha  occ. eigenvalues --   -0.30933  -0.30815  -0.30636  -0.30134  -0.30095
 Alpha  occ. eigenvalues --   -0.29102  -0.28969  -0.28775  -0.28352  -0.28286
 Alpha  occ. eigenvalues --   -0.27947  -0.27715  -0.27366  -0.27209  -0.26850
 Alpha  occ. eigenvalues --   -0.26787  -0.26563  -0.26058  -0.25944  -0.25819
 Alpha  occ. eigenvalues --   -0.25443  -0.24784  -0.24691  -0.23700  -0.23543
 Alpha  occ. eigenvalues --   -0.23360  -0.23163  -0.22878  -0.22402  -0.21970
 Alpha  occ. eigenvalues --   -0.21733  -0.21568  -0.21445  -0.20829  -0.20532
 Alpha  occ. eigenvalues --   -0.20469  -0.20406  -0.19253  -0.19078  -0.18344
 Alpha  occ. eigenvalues --   -0.17966  -0.17730  -0.17413
 Alpha virt. eigenvalues --   -0.11547  -0.05678  -0.05258  -0.03828  -0.02767
 Alpha virt. eigenvalues --   -0.02155  -0.00972  -0.00654  -0.00077   0.00448
 Alpha virt. eigenvalues --    0.00642   0.00727   0.00866   0.01196   0.01595

 Mulliken charges:
               1
     1  C    0.034135
     2  C    0.029574
     3  O   -0.307151
     4  H    0.039680
     5  H    0.039184
     6  H    0.024201
     7  N   -0.130646
     8  C    0.107598
     9  C    0.097098
    10  O   -0.292043
    11  C    0.035140
    12  C    0.213182
    13  O   -0.505159
    14  O   -0.367913
    15  H    0.118365
    16  H    0.007290
    17  H    0.007672
    18  H   -0.000368
    19  N   -0.101901
    20  C    0.166343
    21  C    0.025528
    22  O   -0.245027
    23  C   -0.037264
    24  C    0.016727
    25  C   -0.069193
    26  C    0.049958
    27  N    0.083905
    28  H    0.144576
    29  H   -0.010574
    30  H    0.014238
    31  H    0.042588
    32  H    0.034684
    33  H   -0.011071
    34  H    0.008372
    35  H    0.063891
    36  H    0.069013
    37  H    0.107591
    38  H    0.194444
    39  H    0.191368
    40  H    0.189966
    41  N   -0.147672
    42  C    0.160995
    43  C    0.081284
    44  O   -0.284605
    45  C    0.019333
    46  C    0.083304
    47  O   -0.384587
    48  O   -0.458938
    49  H    0.109991
    50  H   -0.002960
    51  H   -0.020266
    52  H    0.038324
    53  N   -0.150927
    54  C    0.212571
    55  C    0.025215
    56  O   -0.292038
    57  H    0.158478
    58  H    0.006983
    59  H    0.024913
    60  N   -0.184493
    61  C    0.170380
    62  C    0.040067
    63  O   -0.306881
    64  C    0.077016
    65  C    0.062933
    66  N   -0.025905
    67  O   -0.345392
    68  H    0.157295
    69  H    0.015313
    70  H    0.080629
    71  H    0.003061
    72  H    0.132446
    73  H    0.098013
    74  N   -0.186306
    75  C    0.253586
    76  C   -0.004515
    77  O   -0.310693
    78  H    0.155021
    79  H    0.034948
    80  H    0.031769
    81  N   -0.145235
    82  C    0.152787
    83  C    0.075935
    84  O   -0.328110
    85  C    0.125921
    86  C    0.017296
    87  C    0.019871
    88  C    0.023529
    89  C   -0.038007
    90  C   -0.065720
    91  C    0.205502
    92  O   -0.198810
    93  H    0.181861
    94  H   -0.010392
    95  H   -0.024092
    96  H   -0.033934
    97  H   -0.052090
    98  H   -0.032992
    99  H   -0.030589
   100  H   -0.046911
   101  H    0.176593
   102  N   -0.117930
   103  C    0.148387
   104  C    0.107839
   105  O   -0.266667
   106  C   -0.106714
   107  C    0.002585
   108  C    0.039074
   109  C    0.042534
   110  H    0.127306
   111  H    0.008365
   112  H   -0.018142
   113  H   -0.002444
   114  H    0.000742
   115  H   -0.015041
   116  H    0.030632
   117  H    0.010095
   118  H    0.004466
   119  H    0.017366
   120  H    0.014559
   121  N   -0.165276
   122  C    0.042748
   123  C    0.089193
   124  O   -0.266185
   125  C    0.229188
   126  O   -0.294136
   127  H    0.148557
   128  H    0.010107
   129  H    0.003711
   130  H   -0.002760
   131  H    0.172436
   132  N   -0.106682
   133  C    0.110536
   134  C    0.064506
   135  O   -0.257162
   136  C    0.048232
   137  H    0.094384
   138  H    0.025987
   139  H    0.034582
   140  H    0.004358
   141  H    0.037393
   142  N   -0.140473
   143  C    0.077520
   144  C    0.032000
   145  O   -0.245867
   146  C    0.040290
   147  H    0.111464
   148  H    0.018382
   149  H    0.029145
   150  H    0.016707
   151  H    0.031123
   152  N   -0.157714
   153  C    0.144906
   154  C    0.064273
   155  O   -0.289821
   156  C   -0.092561
   157  C    0.134789
   158  C    0.137315
   159  O   -0.418129
   160  O   -0.412838
   161  H    0.126356
   162  H   -0.038124
   163  H    0.047166
   164  H    0.019544
   165  H   -0.020756
   166  H   -0.033477
   167  N   -0.155674
   168  C    0.133622
   169  H    0.031139
   170  H    0.026902
   171  H    0.018189
   172  H    0.134079
   173  Ca   1.291602
   174  O   -0.255210
   175  H    0.177015
   176  H    0.188284
 Sum of Mulliken charges =   0.00000

 Dipole moment (field-independent basis, Debye):
    X=             39.7833    Y=              9.1218    Z=            -11.5745  Tot=             42.4251
 Quadrupole moment (field-independent basis, Debye-Ang):
   XX=           -687.5556   YY=           -359.5135   ZZ=           -529.8816
   XY=            162.7207   XZ=            -52.5278   YZ=             13.0110

 ESP charges:
               1
     1  C   -0.448927
     2  C    0.776109
     3  O   -0.639920
     4  H    0.137071
     5  H    0.120016
     6  H    0.105666
     7  N   -0.723440
     8  C    0.327215
     9  C    0.542582
    10  O   -0.503087
    11  C   -0.120896
    12  C    0.707884
    13  O   -0.961525
    14  O   -0.639674
    15  H    0.344299
    16  H   -0.021062
    17  H    0.030334
    18  H    0.005884
    19  N   -0.645525
    20  C    0.404602
    21  C    0.404405
    22  O   -0.528541
    23  C   -0.400606
    24  C    0.003344
    25  C    0.135151
    26  C   -0.054683
    27  N   -0.372465
    28  H    0.467831
    29  H   -0.012345
    30  H    0.117148
    31  H    0.116224
    32  H   -0.019351
    33  H    0.034162
    34  H   -0.010361
    35  H   -0.005460
    36  H    0.087287
    37  H    0.123438
    38  H    0.342131
    39  H    0.353233
    40  H    0.313703
    41  N   -0.385523
    42  C   -0.056091
    43  C    0.436860
    44  O   -0.530821
    45  C   -0.225032
    46  C    0.704893
    47  O   -0.697089
    48  O   -0.849596
    49  H    0.282152
    50  H    0.117254
    51  H    0.042336
    52  H    0.113194
    53  N   -0.094029
    54  C   -0.218915
    55  C    0.568874
    56  O   -0.570266
    57  H    0.164430
    58  H    0.096613
    59  H    0.095877
    60  N   -0.495550
    61  C   -0.232829
    62  C    0.397041
    63  O   -0.515499
    64  C   -0.203780
    65  C    0.532897
    66  N   -0.721509
    67  O   -0.342139
    68  H    0.677697
    69  H    0.195111
    70  H    0.185013
    71  H    0.065700
    72  H    0.371565
    73  H    0.318611
    74  N   -0.041186
    75  C   -0.397109
    76  C    0.769525
    77  O   -0.614833
    78  H    0.179436
    79  H    0.158498
    80  H    0.144889
    81  N   -0.546812
    82  C    0.263066
    83  C    0.588833
    84  O   -0.503647
    85  C   -0.283197
    86  C    0.072419
    87  C   -0.113369
    88  C   -0.079885
    89  C   -0.318228
    90  C   -0.389721
    91  C    0.484718
    92  O   -0.581253
    93  H    0.242649
    94  H   -0.002171
    95  H    0.052265
    96  H    0.071569
    97  H    0.115545
    98  H    0.137514
    99  H    0.167489
   100  H    0.152354
   101  H    0.415747
   102  N   -0.630427
   103  C   -0.160821
   104  C    0.626737
   105  O   -0.549103
   106  C    0.356918
   107  C    0.209770
   108  C   -0.296753
   109  C   -0.391935
   110  H    0.347176
   111  H    0.086977
   112  H   -0.061040
   113  H   -0.031582
   114  H   -0.015608
   115  H    0.061251
   116  H    0.079354
   117  H    0.034041
   118  H    0.083995
   119  H    0.088644
   120  H    0.097075
   121  N   -0.395547
   122  C   -0.008830
   123  C    0.565821
   124  O   -0.472931
   125  C    0.191378
   126  O   -0.621008
   127  H    0.323710
   128  H    0.043993
   129  H    0.095229
   130  H   -0.000806
   131  H    0.411524
   132  N   -0.527849
   133  C    0.236605
   134  C    0.469506
   135  O   -0.506110
   136  C   -0.400426
   137  H    0.263173
   138  H    0.077238
   139  H    0.128051
   140  H    0.104818
   141  H    0.114734
   142  N   -0.402891
   143  C    0.193150
   144  C    0.422789
   145  O   -0.520940
   146  C   -0.436774
   147  H    0.268135
   148  H    0.051046
   149  H    0.130878
   150  H    0.119956
   151  H    0.116072
   152  N    0.002237
   153  C   -0.603346
   154  C    0.646489
   155  O   -0.583400
   156  C    0.410515
   157  C   -0.690682
   158  C    1.080632
   159  O   -0.899239
   160  O   -0.844963
   161  H    0.122975
   162  H    0.183062
   163  H    0.036704
   164  H   -0.147442
   165  H    0.117045
   166  H    0.224090
   167  N   -0.183374
   168  C   -0.217448
   169  H    0.106385
   170  H    0.105762
   171  H    0.081784
   172  H    0.190277
   173  Ca   1.616371
   174  O   -0.800655
   175  H    0.419718
   176  H    0.393735
 Sum of ESP charges =   0.00000

 Normal termination of Gaussian 09 at Mon Sep 16 20:20:38 2019.
