 Gaussian 09, Revision D.01,
 Gaussian 09:  ES64L-G09RevD.01 24-Apr-2013

 ----------------------------------------------------------------------
 #maxdisk=50GB #B3LYP/SVP Density=Current scf=(tight) #IOP(5/87=12)Pop=
 (MK,readradii) iop(6/33=2) iop(6/42=6)
 ----------------------------------------------------------------------

 ------------
 SOL molecule
 ------------
 Symbolic Z-matrix:
 Charge =  0 Multiplicity = 1

                         Standard orientation:
 ---------------------------------------------------------------------
 Center     Atomic      Atomic             Coordinates (Angstroms)
 Number     Number       Type             X           Y           Z
 ---------------------------------------------------------------------
      1          6           0        1.616801    2.437199    5.798023
      2          6           0        1.177385    2.242566    4.355931
      3          8           0        1.995216    1.895143    3.503317
      4          1           0        1.714237    1.465465    6.281783
      5          1           0        2.577951    2.950838    5.819578
      6          1           0        0.873487    3.033056    6.327643
      7          7           0       -0.111990    2.394692    4.049059
      8          6           0       -0.699542    2.297772    2.729063
      9          6           0       -0.813541    3.617093    1.990283
     10          8           0       -1.707570    4.423470    2.229173
     11          6           0       -2.042667    1.586310    2.897405
     12          6           0       -2.747153    1.421737    1.551926
     13          8           0       -3.809526    0.774967    1.645475
     14          8           0       -2.167996    1.600484    0.460400
     15          1           0       -0.710468    2.582842    4.839897
     16          1           0       -0.069830    1.649589    2.121511
     17          1           0       -2.677767    2.118025    3.611287
     18          1           0       -1.807683    0.613043    3.316015
     19          7           0        0.094923    3.785417    1.028170
     20          6           0        0.314540    5.029160    0.309093
     21          6           0       -0.691237    5.453408   -0.746192
     22          8           0       -0.467702    6.561352   -1.240451
     23          6           0        1.771094    5.041492   -0.167876
     24          6           0        2.779930    5.133372    0.962924
     25          6           0        4.239489    5.174000    0.502995
     26          6           0        4.629475    6.218327   -0.531215
     27          7           0        4.514995    7.549792    0.089104
     28          1           0        0.794430    3.085052    0.835353
     29          1           0        0.230913    5.820794    1.051603
     30          1           0        1.853940    5.977389   -0.721349
     31          1           0        2.025888    4.141557   -0.737259
     32          1           0        2.647331    4.233080    1.571687
     33          1           0        2.472286    5.969698    1.594442
     34          1           0        4.461909    4.186888    0.101696
     35          1           0        4.874832    5.344030    1.370364
     36          1           0        4.012392    6.056089   -1.408875
     37          1           0        5.698457    6.160944   -0.747747
     38          1           0        5.133761    7.585284    0.883502
     39          1           0        4.774147    8.294253   -0.529700
     40          1           0        3.586476    7.715018    0.442165
     41          7           0       -1.804614    4.735813   -0.913377
     42          6           0       -2.982828    5.067146   -1.684175
     43          6           0       -4.319901    4.683074   -1.062867
     44          8           0       -5.404585    4.931219   -1.594642
     45          6           0       -2.809701    4.542716   -3.115084
     46          6           0       -2.626976    3.052915   -3.326047
     47          8           0       -2.618497    2.662520   -4.510327
     48          8           0       -2.597359    2.243388   -2.380167
     49          1           0       -1.667742    3.811226   -0.534822
     50          1           0       -2.901385    6.147821   -1.673789
     51          1           0       -1.922779    5.036815   -3.528647
     52          1           0       -3.677474    4.824926   -3.712351
     53          7           0       -4.342373    3.969532    0.067333
     54          6           0       -5.608047    3.665738    0.701194
     55          6           0       -6.358418    2.492226    0.094387
     56          8           0       -7.574190    2.363146    0.259115
     57          1           0       -3.481885    3.850427    0.571094
     58          1           0       -6.274663    4.526362    0.733588
     59          1           0       -5.369814    3.381897    1.735011
     60          7           0       -5.675207    1.634740   -0.673884
     61          6           0       -6.343252    0.563851   -1.377597
     62          6           0       -6.682879   -0.598267   -0.450109
     63          8           0       -7.767158   -1.130458   -0.677951
     64          6           0       -5.541182    0.154696   -2.606164
     65          6           0       -4.382275   -0.814425   -2.498278
     66          7           0       -4.104659   -1.694367   -3.468759
     67          8           0       -3.709458   -0.870541   -1.473258
     68          1           0       -4.702878    1.774365   -0.883602
     69          1           0       -7.261990    0.932943   -1.834315
     70          1           0       -5.260337    1.050500   -3.169069
     71          1           0       -6.196030   -0.437374   -3.244620
     72          1           0       -4.609787   -1.699378   -4.339690
     73          1           0       -3.254578   -2.224259   -3.313918
     74          7           0       -6.010381   -0.789506    0.676112
     75          6           0       -6.117443   -1.722866    1.781316
     76          6           0       -4.958247   -2.683110    1.974179
     77          8           0       -5.052852   -3.623371    2.765860
     78          1           0       -5.240290   -0.147588    0.818247
     79          1           0       -6.941234   -2.432719    1.638224
     80          1           0       -6.424965   -1.223380    2.702210
     81          7           0       -3.816124   -2.421376    1.332189
     82          6           0       -2.696016   -3.319395    1.182123
     83          6           0       -1.323960   -2.655155    1.175129
     84          8           0       -1.174829   -1.542691    0.668884
     85          6           0       -2.911634   -4.279177    0.014550
     86          6           0       -4.287409   -4.869660   -0.094413
     87          6           0       -5.268942   -4.281090   -0.904523
     88          6           0       -4.664133   -5.952023    0.701307
     89          6           0       -6.571055   -4.787194   -0.896636
     90          6           0       -5.931141   -6.555412    0.629802
     91          6           0       -6.899394   -5.982570   -0.226959
     92          8           0       -8.201641   -6.368866   -0.148036
     93          1           0       -3.799499   -1.491186    0.928990
     94          1           0       -2.611910   -4.001333    2.029759
     95          1           0       -2.201122   -5.103312    0.048802
     96          1           0       -2.553603   -3.772235   -0.890449
     97          1           0       -5.080199   -3.393109   -1.491009
     98          1           0       -3.907376   -6.429308    1.313448
     99          1           0       -7.342259   -4.207444   -1.388809
    100          1           0       -6.171700   -7.360838    1.293745
    101          1           0       -8.190338   -7.253104    0.232616
    102          7           0       -0.288049   -3.322455    1.701436
    103          6           0        1.119624   -3.021698    1.569897
    104          6           0        1.824065   -3.774617    0.442300
    105          8           0        1.771443   -4.995741    0.425306
    106          6           0        1.809276   -3.286830    2.903833
    107          6           0        1.023160   -2.683259    4.064963
    108          6           0        3.234650   -2.747545    2.819099
    109          6           0        0.763795   -1.179887    3.955860
    110          1           0       -0.509090   -4.135906    2.257886
    111          1           0        1.181649   -1.984325    1.250665
    112          1           0        1.928005   -4.361323    3.029803
    113          1           0        1.610673   -2.857139    4.966070
    114          1           0        0.056031   -3.187531    4.163306
    115          1           0        3.687305   -2.952532    3.778048
    116          1           0        3.665116   -3.235878    1.940162
    117          1           0        3.300822   -1.668671    2.664974
    118          1           0        0.033683   -1.115512    3.156114
    119          1           0        0.260290   -0.835811    4.858353
    120          1           0        1.663836   -0.594861    3.770464
    121          7           0        2.404080   -3.026077   -0.498110
    122          6           0        3.277141   -3.447904   -1.571436
    123          6           0        4.792763   -3.345953   -1.380138
    124          8           0        5.211808   -2.726708   -0.410687
    125          6           0        2.926789   -2.680630   -2.836602
    126          8           0        3.219244   -1.303068   -2.722621
    127          1           0        2.373387   -2.018282   -0.411475
    128          1           0        3.074347   -4.511211   -1.647946
    129          1           0        1.871611   -2.801233   -3.089890
    130          1           0        3.515686   -3.062209   -3.674275
    131          1           0        2.494603   -0.888444   -2.256271
    132          7           0        5.635331   -3.930651   -2.242175
    133          6           0        7.018174   -4.110638   -1.858574
    134          6           0        7.753485   -2.783938   -1.667828
    135          8           0        8.656297   -2.646580   -0.846206
    136          6           0        7.706572   -5.015800   -2.877245
    137          1           0        5.258516   -4.590541   -2.905090
    138          1           0        7.099522   -4.621267   -0.895848
    139          1           0        7.237659   -5.991332   -3.029095
    140          1           0        7.447457   -4.575156   -3.839114
    141          1           0        8.773996   -5.057091   -2.685930
    142          7           0        7.390833   -1.767984   -2.445852
    143          6           0        7.896133   -0.430876   -2.208338
    144          6           0        7.456462    0.179166   -0.884315
    145          8           0        8.235393    0.682499   -0.073438
    146          6           0        7.438852    0.351242   -3.438210
    147          1           0        6.773902   -2.027724   -3.202708
    148          1           0        8.984606   -0.396345   -2.310976
    149          1           0        6.398654    0.110471   -3.629570
    150          1           0        7.620716    1.422799   -3.295414
    151          1           0        7.924750    0.065743   -4.376183
    152          7           0        6.179492   -0.009736   -0.562500
    153          6           0        5.494250    0.600034    0.558805
    154          6           0        6.064340    0.092563    1.876101
    155          8           0        6.129446    0.826545    2.858309
    156          6           0        4.004370    0.280727    0.559585
    157          6           0        3.292873    1.179730   -0.449804
    158          6           0        1.839781    0.749483   -0.594073
    159          8           0        0.880154    1.377182   -0.082105
    160          8           0        1.449879   -0.295999   -1.154290
    161          1           0        5.704460   -0.374892   -1.380611
    162          1           0        5.669053    1.672715    0.495570
    163          1           0        3.664183    0.571065    1.545980
    164          1           0        3.741059   -0.762880    0.390610
    165          1           0        3.625971    0.877363   -1.438450
    166          1           0        3.413160    2.224762   -0.193409
    167          7           0        6.546992   -1.149568    1.840649
    168          6           0        7.194472   -1.768663    2.977527
    169          1           0        6.437408   -2.121862    3.677656
    170          1           0        7.796364   -2.612086    2.639239
    171          1           0        7.835215   -1.039344    3.473305
    172          1           0        6.448802   -1.642488    0.962817
    173         20           0       -1.032058    0.279210   -1.566019
    174          8           0       -1.601946    0.222499   -4.223577
    175          1           0       -2.038127    1.074879   -4.206405
    176          1           0       -1.730886   -0.089737   -5.126064
 ---------------------------------------------------------------------

 SCF Done:  E(RB3LYP) =  -5333.57508641     A.U. after   17 cycles

 The electronic state is 1-A.
 Alpha  occ. eigenvalues -- -145.41368 -19.14065 -19.13817 -19.13680 -19.13431
 Alpha  occ. eigenvalues --  -19.12993 -19.11541 -19.10912 -19.10643 -19.10642
 Alpha  occ. eigenvalues --  -19.10574 -19.09667 -19.08995 -19.08652 -19.08427
 Alpha  occ. eigenvalues --  -19.07231 -19.06279 -19.05716 -19.05127 -19.04843
 Alpha  occ. eigenvalues --  -19.04610 -19.03780 -19.03546 -19.02694 -15.47061
 Alpha  occ. eigenvalues --  -14.58860 -14.39901 -14.37362 -14.36907 -14.36816
 Alpha  occ. eigenvalues --  -14.36465 -14.35705 -14.34830 -14.33994 -14.33982
 Alpha  occ. eigenvalues --  -14.32692 -14.31521 -14.31325 -14.29704 -14.29381
 Alpha  occ. eigenvalues --  -12.60701 -12.60652 -12.60608 -10.35450 -10.32016
 Alpha  occ. eigenvalues --  -10.30971 -10.29914 -10.29677 -10.29350 -10.29173
 Alpha  occ. eigenvalues --  -10.28405 -10.28011 -10.27679 -10.27654 -10.26839
 Alpha  occ. eigenvalues --  -10.26287 -10.26220 -10.25912 -10.25729 -10.25115
 Alpha  occ. eigenvalues --  -10.24751 -10.24747 -10.24653 -10.24385 -10.24189
 Alpha  occ. eigenvalues --  -10.23655 -10.23282 -10.23278 -10.23071 -10.22837
 Alpha  occ. eigenvalues --  -10.22822 -10.22598 -10.22566 -10.22318 -10.21795
 Alpha  occ. eigenvalues --  -10.21590 -10.21256 -10.20510 -10.20311 -10.20059
 Alpha  occ. eigenvalues --  -10.19592 -10.19262 -10.19100 -10.18611 -10.18557
 Alpha  occ. eigenvalues --  -10.18286 -10.18271 -10.17618 -10.17198 -10.16889
 Alpha  occ. eigenvalues --  -10.16834 -10.16705 -10.16540 -10.16116 -10.16087
 Alpha  occ. eigenvalues --  -10.15796 -10.15699  -1.83655  -1.14476  -1.11377
 Alpha  occ. eigenvalues --   -1.10956  -1.10850  -1.07990  -1.07409  -1.04445
 Alpha  occ. eigenvalues --   -1.04320  -1.03842  -1.03585  -1.02963  -1.02725
 Alpha  occ. eigenvalues --   -1.02636  -1.02242  -1.01600  -1.01226  -1.00979
 Alpha  occ. eigenvalues --   -0.99990  -0.99251  -0.99041  -0.98425  -0.98265
 Alpha  occ. eigenvalues --   -0.97226  -0.96729  -0.96128  -0.95486  -0.94360
 Alpha  occ. eigenvalues --   -0.93788  -0.93530  -0.92608  -0.92263  -0.91268
 Alpha  occ. eigenvalues --   -0.91081  -0.90770  -0.90282  -0.89421  -0.89072
 Alpha  occ. eigenvalues --   -0.88948  -0.88463  -0.87715  -0.86871  -0.85793
 Alpha  occ. eigenvalues --   -0.82785  -0.82574  -0.82432  -0.81973  -0.81464
 Alpha  occ. eigenvalues --   -0.79240  -0.77951  -0.77899  -0.77164  -0.76129
 Alpha  occ. eigenvalues --   -0.76014  -0.75556  -0.74570  -0.73807  -0.73321
 Alpha  occ. eigenvalues --   -0.73108  -0.71923  -0.71786  -0.71646  -0.70321
 Alpha  occ. eigenvalues --   -0.69670  -0.69551  -0.69394  -0.68614  -0.68571
 Alpha  occ. eigenvalues --   -0.67491  -0.66582  -0.65531  -0.65061  -0.64900
 Alpha  occ. eigenvalues --   -0.64275  -0.63672  -0.63337  -0.62998  -0.62828
 Alpha  occ. eigenvalues --   -0.61068  -0.60824  -0.60675  -0.60065  -0.59727
 Alpha  occ. eigenvalues --   -0.59610  -0.58837  -0.58803  -0.57699  -0.57641
 Alpha  occ. eigenvalues --   -0.56819  -0.56764  -0.56440  -0.56104  -0.55966
 Alpha  occ. eigenvalues --   -0.55794  -0.55754  -0.55674  -0.55454  -0.54713
 Alpha  occ. eigenvalues --   -0.54641  -0.54237  -0.54126  -0.53990  -0.53909
 Alpha  occ. eigenvalues --   -0.53430  -0.53385  -0.53212  -0.52617  -0.52252
 Alpha  occ. eigenvalues --   -0.52061  -0.51150  -0.50885  -0.50276  -0.50003
 Alpha  occ. eigenvalues --   -0.49951  -0.49737  -0.49374  -0.49161  -0.48807
 Alpha  occ. eigenvalues --   -0.48649  -0.48483  -0.48147  -0.48028  -0.47942
 Alpha  occ. eigenvalues --   -0.47772  -0.47589  -0.47186  -0.47114  -0.46887
 Alpha  occ. eigenvalues --   -0.46773  -0.46543  -0.46168  -0.46067  -0.45984
 Alpha  occ. eigenvalues --   -0.45804  -0.45210  -0.45202  -0.45106  -0.45091
 Alpha  occ. eigenvalues --   -0.44826  -0.44613  -0.44499  -0.44463  -0.44219
 Alpha  occ. eigenvalues --   -0.44096  -0.43815  -0.43749  -0.43571  -0.43407
 Alpha  occ. eigenvalues --   -0.43275  -0.43104  -0.42728  -0.42678  -0.42533
 Alpha  occ. eigenvalues --   -0.42324  -0.42124  -0.41981  -0.41735  -0.41671
 Alpha  occ. eigenvalues --   -0.41583  -0.41409  -0.41174  -0.41096  -0.40881
 Alpha  occ. eigenvalues --   -0.40833  -0.40755  -0.40566  -0.40487  -0.40220
 Alpha  occ. eigenvalues --   -0.40097  -0.39970  -0.39905  -0.39841  -0.39588
 Alpha  occ. eigenvalues --   -0.39503  -0.39397  -0.39291  -0.39001  -0.38875
 Alpha  occ. eigenvalues --   -0.38785  -0.38758  -0.38598  -0.38416  -0.38348
 Alpha  occ. eigenvalues --   -0.38174  -0.38074  -0.38012  -0.37851  -0.37697
 Alpha  occ. eigenvalues --   -0.37565  -0.37327  -0.37083  -0.36964  -0.36911
 Alpha  occ. eigenvalues --   -0.36869  -0.36776  -0.36665  -0.36027  -0.35945
 Alpha  occ. eigenvalues --   -0.35855  -0.35647  -0.35443  -0.35294  -0.34768
 Alpha  occ. eigenvalues --   -0.34432  -0.34342  -0.34238  -0.34086  -0.33930
 Alpha  occ. eigenvalues --   -0.33653  -0.33506  -0.32970  -0.32816  -0.32713
 Alpha  occ. eigenvalues --   -0.32527  -0.32252  -0.31884  -0.31732  -0.31614
 Alpha  occ. eigenvalues --   -0.31566  -0.31389  -0.30960  -0.30608  -0.30321
 Alpha  occ. eigenvalues --   -0.30210  -0.29507  -0.29458  -0.28869  -0.28648
 Alpha  occ. eigenvalues --   -0.28556  -0.27741  -0.27226  -0.27045  -0.26957
 Alpha  occ. eigenvalues --   -0.26910  -0.26435  -0.26072  -0.26025  -0.25639
 Alpha  occ. eigenvalues --   -0.25268  -0.25041  -0.24404  -0.24101  -0.23895
 Alpha  occ. eigenvalues --   -0.23493  -0.23428  -0.23397  -0.23228  -0.23072
 Alpha  occ. eigenvalues --   -0.22906  -0.22699  -0.22299  -0.22072  -0.21673
 Alpha  occ. eigenvalues --   -0.21469  -0.21071  -0.20779  -0.19886  -0.19490
 Alpha  occ. eigenvalues --   -0.19299  -0.18793  -0.18493
 Alpha virt. eigenvalues --   -0.10727  -0.04845  -0.04131  -0.03242  -0.01992
 Alpha virt. eigenvalues --   -0.01240  -0.00625  -0.00461  -0.00017   0.00383
 Alpha virt. eigenvalues --    0.00747   0.00835   0.00985   0.01211   0.01420

 Mulliken charges:
               1
     1  C    0.071996
     2  C    0.011189
     3  O   -0.310575
     4  H    0.044519
     5  H    0.032670
     6  H   -0.002402
     7  N   -0.111825
     8  C    0.115816
     9  C    0.064746
    10  O   -0.286365
    11  C    0.048965
    12  C    0.152996
    13  O   -0.379233
    14  O   -0.445724
    15  H    0.113829
    16  H    0.022297
    17  H    0.002934
    18  H    0.013644
    19  N   -0.145965
    20  C    0.130000
    21  C    0.074752
    22  O   -0.325490
    23  C   -0.016285
    24  C   -0.031902
    25  C   -0.006726
    26  C    0.026218
    27  N    0.078986
    28  H    0.139976
    29  H    0.003250
    30  H   -0.019851
    31  H    0.016889
    32  H    0.057454
    33  H   -0.018083
    34  H    0.057616
    35  H    0.025331
    36  H    0.102869
    37  H    0.064185
    38  H    0.184424
    39  H    0.190409
    40  H    0.191068
    41  N   -0.146186
    42  C    0.179804
    43  C    0.056936
    44  O   -0.283135
    45  C    0.080012
    46  C    0.118691
    47  O   -0.401086
    48  O   -0.454250
    49  H    0.156503
    50  H    0.008444
    51  H    0.011367
    52  H    0.036246
    53  N   -0.162180
    54  C    0.248695
    55  C    0.038649
    56  O   -0.290985
    57  H    0.136352
    58  H    0.020083
    59  H    0.022862
    60  N   -0.152567
    61  C    0.169275
    62  C    0.027411
    63  O   -0.285604
    64  C    0.049648
    65  C    0.038152
    66  N   -0.036232
    67  O   -0.325683
    68  H    0.149357
    69  H    0.019885
    70  H    0.066762
    71  H   -0.002045
    72  H    0.124075
    73  H    0.121588
    74  N   -0.162221
    75  C    0.233947
    76  C    0.026995
    77  O   -0.302772
    78  H    0.159198
    79  H    0.033753
    80  H    0.035363
    81  N   -0.144180
    82  C    0.146960
    83  C    0.117079
    84  O   -0.331165
    85  C    0.160492
    86  C   -0.003823
    87  C   -0.001838
    88  C    0.028666
    89  C   -0.030856
    90  C   -0.049317
    91  C    0.171246
    92  O   -0.191131
    93  H    0.152840
    94  H   -0.017382
    95  H   -0.019724
    96  H   -0.057165
    97  H   -0.054562
    98  H   -0.044103
    99  H   -0.008489
   100  H   -0.046877
   101  H    0.170550
   102  N   -0.114751
   103  C    0.134769
   104  C    0.047198
   105  O   -0.267760
   106  C   -0.116160
   107  C    0.068261
   108  C    0.043341
   109  C   -0.051550
   110  H    0.132851
   111  H   -0.004673
   112  H   -0.000723
   113  H   -0.011321
   114  H   -0.019561
   115  H    0.009752
   116  H    0.023524
   117  H    0.017112
   118  H    0.042780
   119  H    0.000111
   120  H    0.050826
   121  N   -0.138104
   122  C    0.104522
   123  C    0.096307
   124  O   -0.260232
   125  C    0.250150
   126  O   -0.358118
   127  H    0.138438
   128  H    0.011403
   129  H    0.002235
   130  H   -0.021804
   131  H    0.168294
   132  N   -0.135168
   133  C    0.075227
   134  C    0.045486
   135  O   -0.256837
   136  C    0.051299
   137  H    0.123054
   138  H    0.024979
   139  H    0.025079
   140  H   -0.013981
   141  H    0.055062
   142  N   -0.132424
   143  C    0.125731
   144  C    0.034706
   145  O   -0.250624
   146  C    0.005407
   147  H    0.114741
   148  H    0.019916
   149  H    0.005620
   150  H    0.019630
   151  H    0.022469
   152  N   -0.137401
   153  C    0.156787
   154  C    0.046069
   155  O   -0.283058
   156  C   -0.038748
   157  C    0.139641
   158  C    0.138889
   159  O   -0.377778
   160  O   -0.477818
   161  H    0.116748
   162  H   -0.030859
   163  H    0.062156
   164  H    0.010454
   165  H   -0.003504
   166  H   -0.027715
   167  N   -0.159901
   168  C    0.149480
   169  H    0.012153
   170  H    0.018371
   171  H    0.028981
   172  H    0.150181
   173  Ca   1.352175
   174  O   -0.349203
   175  H    0.140637
   176  H    0.175851
 Sum of Mulliken charges =   0.00000

 Dipole moment (field-independent basis, Debye):
    X=             32.0672    Y=             10.8757    Z=             -7.8684  Tot=             34.7634
 Quadrupole moment (field-independent basis, Debye-Ang):
   XX=           -703.7142   YY=           -383.4490   ZZ=           -526.9827
   XY=            146.7442   XZ=            -45.4024   YZ=             50.5848

 ESP charges:
               1
     1  C   -0.371256
     2  C    0.700403
     3  O   -0.615778
     4  H    0.114330
     5  H    0.120487
     6  H    0.069900
     7  N   -0.718199
     8  C    0.283985
     9  C    0.506566
    10  O   -0.560550
    11  C   -0.286601
    12  C    0.818678
    13  O   -0.699925
    14  O   -0.711007
    15  H    0.362976
    16  H   -0.004867
    17  H    0.071286
    18  H    0.064295
    19  N   -0.277103
    20  C   -0.265023
    21  C    0.599596
    22  O   -0.585544
    23  C    0.111255
    24  C   -0.013138
    25  C   -0.048686
    26  C    0.082878
    27  N   -0.346139
    28  H    0.303108
    29  H    0.143740
    30  H    0.003177
    31  H   -0.034626
    32  H    0.026607
    33  H   -0.008141
    34  H    0.024245
    35  H    0.037837
    36  H    0.059966
    37  H    0.069719
    38  H    0.324085
    39  H    0.329100
    40  H    0.315446
    41  N   -0.314198
    42  C    0.034111
    43  C    0.353358
    44  O   -0.501699
    45  C   -0.367142
    46  C    0.812315
    47  O   -0.680495
    48  O   -0.742870
    49  H    0.154836
    50  H    0.122803
    51  H    0.092453
    52  H    0.132798
    53  N   -0.058154
    54  C   -0.265424
    55  C    0.567015
    56  O   -0.556170
    57  H    0.132014
    58  H    0.129862
    59  H    0.111322
    60  N   -0.434765
    61  C    0.202660
    62  C    0.349158
    63  O   -0.564865
    64  C   -0.452827
    65  C    0.855909
    66  N   -0.874292
    67  O   -0.725662
    68  H    0.380826
    69  H    0.093420
    70  H    0.160828
    71  H    0.094381
    72  H    0.384925
    73  H    0.396156
    74  N    0.163699
    75  C   -0.561364
    76  C    0.863209
    77  O   -0.596527
    78  H    0.064449
    79  H    0.208386
    80  H    0.156169
    81  N   -0.782492
    82  C    0.250735
    83  C    0.667682
    84  O   -0.597328
    85  C    0.080875
    86  C   -0.059552
    87  C   -0.227131
    88  C   -0.030381
    89  C   -0.191637
    90  C   -0.312545
    91  C    0.286585
    92  O   -0.478549
    93  H    0.450801
    94  H    0.006944
    95  H   -0.014012
    96  H   -0.033294
    97  H    0.169339
    98  H    0.088183
    99  H    0.152158
   100  H    0.158885
   101  H    0.372247
   102  N   -0.663607
   103  C   -0.237419
   104  C    0.791889
   105  O   -0.570950
   106  C    0.334955
   107  C   -0.306043
   108  C   -0.400367
   109  C    0.073248
   110  H    0.359530
   111  H    0.097660
   112  H   -0.000914
   113  H    0.058755
   114  H    0.061953
   115  H    0.118822
   116  H    0.059694
   117  H    0.091595
   118  H    0.082261
   119  H    0.006658
   120  H    0.045109
   121  N   -0.436800
   122  C   -0.135830
   123  C    0.729362
   124  O   -0.542306
   125  C    0.107523
   126  O   -0.533565
   127  H    0.297020
   128  H    0.067081
   129  H    0.057071
   130  H    0.025550
   131  H    0.304450
   132  N   -0.596286
   133  C    0.204239
   134  C    0.520812
   135  O   -0.525270
   136  C   -0.379499
   137  H    0.333446
   138  H    0.052819
   139  H    0.121873
   140  H    0.070949
   141  H    0.141076
   142  N   -0.524716
   143  C    0.274255
   144  C    0.291668
   145  O   -0.503773
   146  C   -0.356214
   147  H    0.316909
   148  H    0.062586
   149  H    0.071321
   150  H    0.097405
   151  H    0.106513
   152  N   -0.008579
   153  C   -0.319069
   154  C    0.506998
   155  O   -0.562115
   156  C    0.272942
   157  C   -0.540143
   158  C    0.778953
   159  O   -0.690709
   160  O   -0.649307
   161  H    0.125828
   162  H    0.127675
   163  H    0.056412
   164  H   -0.066862
   165  H    0.083140
   166  H    0.234917
   167  N   -0.024796
   168  C   -0.241528
   169  H    0.061977
   170  H    0.096085
   171  H    0.112788
   172  H    0.151823
   173  Ca   1.579543
   174  O   -0.891500
   175  H    0.364989
   176  H    0.442834
 Sum of ESP charges =   0.00000

 Normal termination of Gaussian 09 at Mon Sep 16 20:21:42 2019.
