 Gaussian 09, Revision D.01,
 Gaussian 09:  ES64L-G09RevD.01 24-Apr-2013

 ----------------------------------------------------------------------
 #maxdisk=50GB #B3LYP/SVP Density=Current scf=(tight) #IOP(5/87=12)Pop=
 (MK,readradii) iop(6/33=2) iop(6/42=6)
 ----------------------------------------------------------------------

 ------------
 SOL molecule
 ------------
 Symbolic Z-matrix:
 Charge =  0 Multiplicity = 1

                         Standard orientation:
 ---------------------------------------------------------------------
 Center     Atomic      Atomic             Coordinates (Angstroms)
 Number     Number       Type             X           Y           Z
 ---------------------------------------------------------------------
      1          6           0        1.959505    1.791532    5.830927
      2          6           0        1.514631    1.685221    4.379450
      3          8           0        2.241321    1.294935    3.467968
      4          1           0        2.091422    0.791715    6.244164
      5          1           0        2.903732    2.333634    5.883747
      6          1           0        1.202088    2.324544    6.405535
      7          7           0        0.248843    2.041208    4.137677
      8          6           0       -0.267576    2.207387    2.790273
      9          6           0       -0.055755    3.625847    2.283320
     10          8           0       -0.298165    4.603537    2.996734
     11          6           0       -1.745371    1.854226    2.842205
     12          6           0       -2.486880    1.724192    1.517004
     13          8           0       -3.708769    1.466506    1.586163
     14          8           0       -1.850906    1.923458    0.462001
     15          1           0       -0.380750    2.008936    4.927025
     16          1           0        0.197502    1.574119    2.038226
     17          1           0       -2.320111    2.531926    3.485164
     18          1           0       -1.849218    0.934619    3.415388
     19          7           0        0.391393    3.752191    1.030006
     20          6           0        0.935482    4.995051    0.530942
     21          6           0        0.140995    5.722022   -0.554186
     22          8           0        0.330825    6.904455   -0.825327
     23          6           0        2.302559    4.710738   -0.072687
     24          6           0        3.414718    4.348129    0.914844
     25          6           0        4.774160    4.205045    0.239829
     26          6           0        5.283075    5.540110   -0.299990
     27          7           0        5.343778    6.573522    0.739181
     28          1           0        0.457264    2.965784    0.398717
     29          1           0        1.080103    5.683880    1.368318
     30          1           0        2.605502    5.640434   -0.542145
     31          1           0        2.205653    3.929626   -0.828778
     32          1           0        3.142678    3.357433    1.298140
     33          1           0        3.501840    4.987122    1.797056
     34          1           0        4.619522    3.552784   -0.616584
     35          1           0        5.391517    3.801846    1.047295
     36          1           0        4.565172    5.860117   -1.056766
     37          1           0        6.220818    5.267848   -0.780627
     38          1           0        5.905154    7.384927    0.505348
     39          1           0        4.462283    6.953586    1.034845
     40          1           0        5.760918    6.192828    1.569161
     41          7           0       -0.771456    4.942884   -1.129492
     42          6           0       -1.789681    5.400379   -2.047215
     43          6           0       -3.213694    5.136402   -1.552843
     44          8           0       -4.153018    5.304278   -2.327754
     45          6           0       -1.443267    4.743055   -3.381877
     46          6           0       -1.386036    3.226385   -3.488818
     47          8           0       -1.066649    2.693288   -4.570622
     48          8           0       -1.601158    2.619317   -2.414299
     49          1           0       -0.692804    3.953236   -0.928718
     50          1           0       -1.679203    6.479036   -2.160769
     51          1           0       -0.450894    5.096957   -3.633968
     52          1           0       -2.044987    5.117454   -4.221376
     53          7           0       -3.364892    4.819074   -0.270563
     54          6           0       -4.593898    4.613372    0.469526
     55          6           0       -5.619182    3.724854   -0.209244
     56          8           0       -6.755888    4.181354   -0.278580
     57          1           0       -2.551478    4.704497    0.326287
     58          1           0       -5.101997    5.573166    0.579210
     59          1           0       -4.325080    4.242216    1.458909
     60          7           0       -5.261933    2.512325   -0.630489
     61          6           0       -6.143951    1.584084   -1.319119
     62          6           0       -6.794957    0.524277   -0.443677
     63          8           0       -7.871062    0.037580   -0.812355
     64          6           0       -5.386677    0.933729   -2.462611
     65          6           0       -4.524296   -0.283169   -2.149470
     66          7           0       -4.758869   -1.407231   -2.814272
     67          8           0       -3.667131   -0.216958   -1.259872
     68          1           0       -4.338759    2.212237   -0.368958
     69          1           0       -6.961815    2.176685   -1.736041
     70          1           0       -4.700554    1.651521   -2.910395
     71          1           0       -6.083791    0.656328   -3.259029
     72          1           0       -5.631028   -1.534781   -3.309519
     73          1           0       -3.971329   -2.034604   -2.920964
     74          7           0       -6.167402    0.101489    0.651734
     75          6           0       -6.536159   -0.963761    1.573070
     76          6           0       -5.478674   -2.025445    1.813804
     77          8           0       -5.694919   -3.063716    2.438809
     78          1           0       -5.280441    0.554214    0.802535
     79          1           0       -7.392845   -1.442384    1.104444
     80          1           0       -6.843912   -0.509559    2.512958
     81          7           0       -4.325008   -1.916221    1.148655
     82          6           0       -3.355609   -2.993452    1.216765
     83          6           0       -1.924317   -2.453105    1.154904
     84          8           0       -1.693672   -1.440704    0.488385
     85          6           0       -3.643853   -3.926775    0.048337
     86          6           0       -5.000991   -4.563382   -0.097973
     87          6           0       -6.010537   -3.986210   -0.884922
     88          6           0       -5.230526   -5.803599    0.508555
     89          6           0       -7.254320   -4.621002   -1.024358
     90          6           0       -6.471837   -6.444250    0.388082
     91          6           0       -7.472921   -5.861767   -0.408877
     92          8           0       -8.651037   -6.500296   -0.684599
     93          1           0       -4.202580   -1.181189    0.463280
     94          1           0       -3.438810   -3.490226    2.181593
     95          1           0       -2.872213   -4.694306    0.153550
     96          1           0       -3.487350   -3.336949   -0.855107
     97          1           0       -5.980844   -2.970343   -1.249934
     98          1           0       -4.423597   -6.395651    0.916526
     99          1           0       -8.031162   -4.041269   -1.503342
    100          1           0       -6.562063   -7.481677    0.680493
    101          1           0       -8.671377   -7.376998   -0.277806
    102          7           0       -1.018620   -3.241911    1.731790
    103          6           0        0.399458   -2.958992    1.592109
    104          6           0        0.942856   -3.792188    0.430557
    105          8           0        0.515924   -4.932844    0.323627
    106          6           0        1.102904   -3.264921    2.903586
    107          6           0        0.434649   -2.856052    4.213991
    108          6           0        2.497112   -2.648925    2.880482
    109          6           0       -0.055664   -1.403691    4.220417
    110          1           0       -1.226433   -4.164799    2.085473
    111          1           0        0.457125   -1.903387    1.351750
    112          1           0        1.208700   -4.349131    2.987223
    113          1           0        1.246077   -2.931704    4.949696
    114          1           0       -0.333571   -3.578221    4.460179
    115          1           0        3.041344   -2.639922    3.824850
    116          1           0        3.057720   -3.382057    2.296070
    117          1           0        2.566093   -1.633265    2.478641
    118          1           0       -0.931345   -1.298014    3.576199
    119          1           0       -0.307941   -1.196133    5.256166
    120          1           0        0.760702   -0.770850    3.887613
    121          7           0        1.929053   -3.216179   -0.258376
    122          6           0        2.715395   -3.761557   -1.341579
    123          6           0        4.203876   -3.632936   -1.074031
    124          8           0        4.671142   -2.939554   -0.161298
    125          6           0        2.361876   -3.125530   -2.691614
    126          8           0        2.733711   -1.777628   -2.850980
    127          1           0        1.944912   -2.209098   -0.160213
    128          1           0        2.460974   -4.807739   -1.452359
    129          1           0        1.290051   -3.210194   -2.873341
    130          1           0        2.806321   -3.760631   -3.452084
    131          1           0        2.210917   -1.308563   -2.194882
    132          7           0        5.033615   -4.293981   -1.882211
    133          6           0        6.427553   -4.530437   -1.588572
    134          6           0        7.226574   -3.239914   -1.547138
    135          8           0        8.023920   -3.090628   -0.624071
    136          6           0        6.988016   -5.421180   -2.696299
    137          1           0        4.624257   -4.848978   -2.622619
    138          1           0        6.500705   -5.034391   -0.625255
    139          1           0        6.466268   -6.357336   -2.864793
    140          1           0        7.090612   -4.919644   -3.662185
    141          1           0        8.008512   -5.596221   -2.356083
    142          7           0        6.896837   -2.362647   -2.509310
    143          6           0        7.549700   -1.072294   -2.501608
    144          6           0        7.258960   -0.241953   -1.257861
    145          8           0        8.179442    0.301524   -0.650946
    146          6           0        7.221463   -0.267019   -3.760453
    147          1           0        6.180124   -2.576196   -3.188515
    148          1           0        8.623932   -1.218822   -2.560390
    149          1           0        6.134615   -0.302949   -3.809141
    150          1           0        7.493370    0.767369   -3.571219
    151          1           0        7.670622   -0.735150   -4.628157
    152          7           0        5.998906   -0.306249   -0.828643
    153          6           0        5.489066    0.239050    0.408335
    154          6           0        5.944267   -0.401415    1.712097
    155          8           0        5.980046    0.270927    2.748425
    156          6           0        3.977038    0.154299    0.473835
    157          6           0        3.291903    0.832990   -0.714302
    158          6           0        1.796419    0.560240   -0.624670
    159          8           0        0.928134    1.447990   -0.448090
    160          8           0        1.349656   -0.575894   -0.885827
    161          1           0        5.346769   -0.839029   -1.382865
    162          1           0        5.839179    1.269624    0.501814
    163          1           0        3.742025    0.723971    1.376632
    164          1           0        3.672703   -0.887281    0.603029
    165          1           0        3.589360    0.301437   -1.624011
    166          1           0        3.421346    1.913455   -0.661011
    167          7           0        6.321058   -1.689589    1.686827
    168          6           0        6.949495   -2.411761    2.773995
    169          1           0        6.188977   -2.725161    3.489330
    170          1           0        7.460197   -3.289873    2.380171
    171          1           0        7.670498   -1.764508    3.272339
    172          1           0        6.098738   -2.189115    0.844244
    173         20           0       -1.146076    0.361221   -1.589260
    174          8           0       -1.157266   -2.199608   -2.357981
    175          1           0       -0.599764   -2.165485   -3.137356
    176          1           0       -1.640744   -3.018675   -2.432000
 ---------------------------------------------------------------------

 SCF Done:  E(RB3LYP) =  -5333.59399535     A.U. after   15 cycles

 The electronic state is 1-A.
 Alpha  occ. eigenvalues -- -145.39423 -19.22193 -19.15476 -19.15397 -19.14498
 Alpha  occ. eigenvalues --  -19.13577 -19.12384 -19.12161 -19.11717 -19.11062
 Alpha  occ. eigenvalues --  -19.10739 -19.09861 -19.08515 -19.07892 -19.07251
 Alpha  occ. eigenvalues --  -19.07017 -19.06438 -19.06090 -19.05473 -19.04817
 Alpha  occ. eigenvalues --  -19.04328 -19.04050 -19.03309 -19.03025 -15.45175
 Alpha  occ. eigenvalues --  -14.57886 -14.40022 -14.39059 -14.38571 -14.36686
 Alpha  occ. eigenvalues --  -14.36346 -14.36094 -14.34026 -14.32412 -14.32411
 Alpha  occ. eigenvalues --  -14.32380 -14.32089 -14.31816 -14.31177 -14.30241
 Alpha  occ. eigenvalues --  -12.58797 -12.58765 -12.58711 -10.33723 -10.32806
 Alpha  occ. eigenvalues --  -10.32068 -10.30818 -10.30452 -10.29713 -10.29265
 Alpha  occ. eigenvalues --  -10.28557 -10.27549 -10.27327 -10.26797 -10.26527
 Alpha  occ. eigenvalues --  -10.26117 -10.26096 -10.25768 -10.25707 -10.25692
 Alpha  occ. eigenvalues --  -10.25088 -10.24487 -10.24262 -10.23869 -10.23460
 Alpha  occ. eigenvalues --  -10.23209 -10.23129 -10.22934 -10.22897 -10.22891
 Alpha  occ. eigenvalues --  -10.22695 -10.22394 -10.22212 -10.21459 -10.21229
 Alpha  occ. eigenvalues --  -10.21162 -10.20957 -10.20376 -10.20273 -10.20102
 Alpha  occ. eigenvalues --  -10.19855 -10.19564 -10.19558 -10.19402 -10.18979
 Alpha  occ. eigenvalues --  -10.18783 -10.18557 -10.18478 -10.18303 -10.18218
 Alpha  occ. eigenvalues --  -10.18189 -10.17666 -10.17619 -10.16653 -10.16612
 Alpha  occ. eigenvalues --  -10.15554 -10.14368  -1.82045  -1.13193  -1.09850
 Alpha  occ. eigenvalues --   -1.09663  -1.09294  -1.07899  -1.07613  -1.07073
 Alpha  occ. eigenvalues --   -1.06105  -1.04985  -1.04533  -1.04172  -1.03763
 Alpha  occ. eigenvalues --   -1.03407  -1.02576  -1.01514  -1.00821  -1.00103
 Alpha  occ. eigenvalues --   -0.99764  -0.99508  -0.98960  -0.98648  -0.98276
 Alpha  occ. eigenvalues --   -0.97916  -0.97127  -0.96909  -0.95721  -0.95295
 Alpha  occ. eigenvalues --   -0.94176  -0.94007  -0.93688  -0.92900  -0.91259
 Alpha  occ. eigenvalues --   -0.90493  -0.89886  -0.89554  -0.89011  -0.88753
 Alpha  occ. eigenvalues --   -0.88564  -0.88499  -0.88224  -0.87629  -0.87078
 Alpha  occ. eigenvalues --   -0.84017  -0.83139  -0.81780  -0.81150  -0.80963
 Alpha  occ. eigenvalues --   -0.79399  -0.78318  -0.78041  -0.77391  -0.77087
 Alpha  occ. eigenvalues --   -0.75510  -0.74228  -0.73961  -0.73766  -0.73608
 Alpha  occ. eigenvalues --   -0.72659  -0.71883  -0.71365  -0.71027  -0.70912
 Alpha  occ. eigenvalues --   -0.70022  -0.69723  -0.69257  -0.68578  -0.68185
 Alpha  occ. eigenvalues --   -0.68152  -0.66700  -0.66307  -0.65131  -0.64768
 Alpha  occ. eigenvalues --   -0.64244  -0.63388  -0.63186  -0.62604  -0.62123
 Alpha  occ. eigenvalues --   -0.61911  -0.61727  -0.61421  -0.61195  -0.60730
 Alpha  occ. eigenvalues --   -0.60571  -0.60112  -0.59430  -0.59002  -0.58470
 Alpha  occ. eigenvalues --   -0.58217  -0.58135  -0.57151  -0.56967  -0.56469
 Alpha  occ. eigenvalues --   -0.56433  -0.56210  -0.56069  -0.55947  -0.55672
 Alpha  occ. eigenvalues --   -0.54729  -0.54517  -0.54382  -0.54277  -0.53998
 Alpha  occ. eigenvalues --   -0.53933  -0.53788  -0.53300  -0.52701  -0.52084
 Alpha  occ. eigenvalues --   -0.51258  -0.50952  -0.50874  -0.50612  -0.50164
 Alpha  occ. eigenvalues --   -0.50085  -0.49966  -0.49328  -0.49124  -0.49045
 Alpha  occ. eigenvalues --   -0.48932  -0.48675  -0.48443  -0.48375  -0.48077
 Alpha  occ. eigenvalues --   -0.47952  -0.47797  -0.47648  -0.47547  -0.47131
 Alpha  occ. eigenvalues --   -0.46840  -0.46698  -0.46494  -0.46354  -0.46046
 Alpha  occ. eigenvalues --   -0.45910  -0.45472  -0.45362  -0.45188  -0.45151
 Alpha  occ. eigenvalues --   -0.45013  -0.44887  -0.44778  -0.44475  -0.44254
 Alpha  occ. eigenvalues --   -0.44162  -0.44004  -0.43660  -0.43525  -0.43480
 Alpha  occ. eigenvalues --   -0.43284  -0.43137  -0.42880  -0.42817  -0.42778
 Alpha  occ. eigenvalues --   -0.42655  -0.42416  -0.42341  -0.42266  -0.42198
 Alpha  occ. eigenvalues --   -0.41995  -0.41653  -0.41375  -0.41232  -0.41192
 Alpha  occ. eigenvalues --   -0.40922  -0.40665  -0.40480  -0.40393  -0.40302
 Alpha  occ. eigenvalues --   -0.40129  -0.40067  -0.39963  -0.39846  -0.39705
 Alpha  occ. eigenvalues --   -0.39669  -0.39579  -0.39543  -0.39372  -0.39339
 Alpha  occ. eigenvalues --   -0.39239  -0.39115  -0.38938  -0.38857  -0.38786
 Alpha  occ. eigenvalues --   -0.38710  -0.38522  -0.38375  -0.38230  -0.37845
 Alpha  occ. eigenvalues --   -0.37731  -0.37453  -0.37329  -0.37204  -0.37019
 Alpha  occ. eigenvalues --   -0.36911  -0.36745  -0.36666  -0.36407  -0.36265
 Alpha  occ. eigenvalues --   -0.36117  -0.35981  -0.35800  -0.35734  -0.35520
 Alpha  occ. eigenvalues --   -0.35333  -0.34936  -0.34761  -0.34686  -0.34138
 Alpha  occ. eigenvalues --   -0.33858  -0.33706  -0.33597  -0.33570  -0.33323
 Alpha  occ. eigenvalues --   -0.33142  -0.32807  -0.32231  -0.32081  -0.31861
 Alpha  occ. eigenvalues --   -0.31791  -0.31588  -0.31507  -0.31403  -0.31166
 Alpha  occ. eigenvalues --   -0.30739  -0.30198  -0.30037  -0.29771  -0.29319
 Alpha  occ. eigenvalues --   -0.29011  -0.28188  -0.27708  -0.27489  -0.27167
 Alpha  occ. eigenvalues --   -0.27137  -0.26551  -0.26361  -0.26086  -0.25318
 Alpha  occ. eigenvalues --   -0.25199  -0.25025  -0.24691  -0.24352  -0.24309
 Alpha  occ. eigenvalues --   -0.23893  -0.23598  -0.23003  -0.22762  -0.22684
 Alpha  occ. eigenvalues --   -0.22555  -0.22541  -0.22093  -0.21910  -0.21740
 Alpha  occ. eigenvalues --   -0.21541  -0.20974  -0.20827  -0.20379  -0.20126
 Alpha  occ. eigenvalues --   -0.19659  -0.19383  -0.19315
 Alpha virt. eigenvalues --   -0.09368  -0.05383  -0.03699  -0.03242  -0.03077
 Alpha virt. eigenvalues --   -0.02314  -0.01231  -0.01077  -0.00569  -0.00228
 Alpha virt. eigenvalues --    0.00029   0.00465   0.00946   0.00993   0.01363

 Mulliken charges:
               1
     1  C    0.074958
     2  C    0.024824
     3  O   -0.295594
     4  H    0.034256
     5  H    0.035367
     6  H    0.002950
     7  N   -0.120684
     8  C    0.161230
     9  C    0.064296
    10  O   -0.298033
    11  C    0.018595
    12  C    0.168003
    13  O   -0.395061
    14  O   -0.447007
    15  H    0.123021
    16  H   -0.002616
    17  H    0.003374
    18  H   -0.003514
    19  N   -0.155726
    20  C    0.116212
    21  C    0.076953
    22  O   -0.299906
    23  C   -0.008312
    24  C   -0.021463
    25  C   -0.035699
    26  C    0.031918
    27  N    0.082017
    28  H    0.178205
    29  H   -0.009205
    30  H   -0.036611
    31  H    0.017285
    32  H    0.056539
    33  H   -0.030917
    34  H    0.049924
    35  H    0.066858
    36  H    0.083911
    37  H    0.085739
    38  H    0.189279
    39  H    0.197430
    40  H    0.181133
    41  N   -0.178467
    42  C    0.170705
    43  C    0.070644
    44  O   -0.281717
    45  C    0.059270
    46  C    0.115828
    47  O   -0.364010
    48  O   -0.489189
    49  H    0.151192
    50  H    0.019892
    51  H   -0.013124
    52  H    0.019592
    53  N   -0.137685
    54  C    0.220503
    55  C    0.017642
    56  O   -0.280275
    57  H    0.128670
    58  H    0.009213
    59  H    0.029991
    60  N   -0.142459
    61  C    0.153937
    62  C    0.038065
    63  O   -0.299019
    64  C    0.113242
    65  C   -0.003669
    66  N   -0.014360
    67  O   -0.352260
    68  H    0.145259
    69  H    0.033293
    70  H    0.066758
    71  H   -0.003063
    72  H    0.155903
    73  H    0.117041
    74  N   -0.191083
    75  C    0.263994
    76  C    0.032848
    77  O   -0.301285
    78  H    0.140938
    79  H    0.037851
    80  H    0.034664
    81  N   -0.168715
    82  C    0.113625
    83  C    0.146834
    84  O   -0.331858
    85  C    0.150543
    86  C    0.044824
    87  C   -0.036736
    88  C   -0.001490
    89  C   -0.025684
    90  C   -0.026581
    91  C    0.165354
    92  O   -0.205431
    93  H    0.157491
    94  H    0.001933
    95  H   -0.018160
    96  H   -0.075190
    97  H   -0.042743
    98  H   -0.035102
    99  H   -0.015720
   100  H   -0.041958
   101  H    0.172837
   102  N   -0.124855
   103  C    0.097636
   104  C    0.072655
   105  O   -0.290814
   106  C   -0.093978
   107  C    0.059028
   108  C    0.027697
   109  C   -0.030375
   110  H    0.135710
   111  H    0.020238
   112  H   -0.022382
   113  H   -0.009551
   114  H   -0.023208
   115  H    0.003309
   116  H    0.002350
   117  H    0.049794
   118  H    0.041197
   119  H   -0.000205
   120  H    0.045734
   121  N   -0.120339
   122  C    0.068535
   123  C    0.126690
   124  O   -0.279450
   125  C    0.260885
   126  O   -0.335921
   127  H    0.155016
   128  H    0.013290
   129  H   -0.054479
   130  H   -0.021351
   131  H    0.167223
   132  N   -0.128577
   133  C    0.084275
   134  C    0.074104
   135  O   -0.241408
   136  C    0.031288
   137  H    0.116788
   138  H    0.019804
   139  H    0.029622
   140  H    0.009911
   141  H    0.039611
   142  N   -0.142062
   143  C    0.079534
   144  C    0.039119
   145  O   -0.257826
   146  C    0.058213
   147  H    0.118622
   148  H    0.014820
   149  H   -0.000051
   150  H    0.026358
   151  H    0.030426
   152  N   -0.135888
   153  C    0.154589
   154  C    0.051074
   155  O   -0.297512
   156  C   -0.126817
   157  C    0.149542
   158  C    0.158298
   159  O   -0.390020
   160  O   -0.460759
   161  H    0.122426
   162  H   -0.025296
   163  H    0.065384
   164  H    0.044503
   165  H   -0.000757
   166  H   -0.029096
   167  N   -0.155807
   168  C    0.149589
   169  H    0.010692
   170  H    0.015758
   171  H    0.024665
   172  H    0.136162
   173  Ca   1.298102
   174  O   -0.271525
   175  H    0.191010
   176  H    0.191771
 Sum of Mulliken charges =   0.00000

 Dipole moment (field-independent basis, Debye):
    X=             28.1669    Y=             -3.9134    Z=             -4.4836  Tot=             28.7888
 Quadrupole moment (field-independent basis, Debye-Ang):
   XX=           -627.6053   YY=           -450.6654   ZZ=           -547.1584
   XY=            162.4634   XZ=            -25.5163   YZ=             75.1242

 ESP charges:
               1
     1  C   -0.476841
     2  C    0.805480
     3  O   -0.628138
     4  H    0.128430
     5  H    0.141420
     6  H    0.107519
     7  N   -0.718690
     8  C    0.154121
     9  C    0.582032
    10  O   -0.587163
    11  C   -0.108599
    12  C    0.686803
    13  O   -0.676382
    14  O   -0.727149
    15  H    0.350164
    16  H    0.026524
    17  H    0.052247
    18  H    0.017407
    19  N   -0.134584
    20  C   -0.373880
    21  C    0.609909
    22  O   -0.581178
    23  C   -0.117778
    24  C    0.291920
    25  C   -0.061800
    26  C    0.007769
    27  N   -0.323160
    28  H    0.238987
    29  H    0.138039
    30  H    0.046306
    31  H    0.033250
    32  H   -0.074750
    33  H   -0.060553
    34  H    0.058215
    35  H    0.035027
    36  H    0.064932
    37  H    0.087499
    38  H    0.321190
    39  H    0.323988
    40  H    0.314073
    41  N   -0.287271
    42  C   -0.263030
    43  C    0.579909
    44  O   -0.525469
    45  C    0.032631
    46  C    0.674908
    47  O   -0.687597
    48  O   -0.773657
    49  H    0.298749
    50  H    0.155353
    51  H    0.010283
    52  H    0.023266
    53  N   -0.312615
    54  C   -0.116545
    55  C    0.558480
    56  O   -0.552867
    57  H    0.221021
    58  H    0.081133
    59  H    0.097944
    60  N   -0.373851
    61  C    0.169085
    62  C    0.336288
    63  O   -0.548198
    64  C   -0.226934
    65  C    0.521184
    66  N   -0.778775
    67  O   -0.473066
    68  H    0.187511
    69  H    0.096038
    70  H    0.134431
    71  H    0.061695
    72  H    0.398698
    73  H    0.351406
    74  N   -0.031286
    75  C   -0.235619
    76  C    0.649465
    77  O   -0.567343
    78  H    0.113382
    79  H    0.134617
    80  H    0.101192
    81  N   -0.733830
    82  C    0.603529
    83  C    0.447659
    84  O   -0.549194
    85  C   -0.223155
    86  C    0.066706
    87  C   -0.312968
    88  C   -0.105851
    89  C   -0.188957
    90  C   -0.225980
    91  C    0.347980
    92  O   -0.549726
    93  H    0.423115
    94  H   -0.043823
    95  H    0.010931
    96  H    0.059157
    97  H    0.208782
    98  H    0.117435
    99  H    0.155042
   100  H    0.105348
   101  H    0.404776
   102  N   -0.571907
   103  C    0.073140
   104  C    0.583143
   105  O   -0.570943
   106  C    0.195539
   107  C   -0.104217
   108  C   -0.337572
   109  C   -0.057555
   110  H    0.324300
   111  H    0.070292
   112  H   -0.009133
   113  H    0.022180
   114  H    0.016369
   115  H    0.113472
   116  H    0.047068
   117  H    0.074013
   118  H    0.019404
   119  H    0.017987
   120  H    0.078262
   121  N   -0.343528
   122  C   -0.161801
   123  C    0.694619
   124  O   -0.538162
   125  C    0.387114
   126  O   -0.679639
   127  H    0.333492
   128  H    0.069503
   129  H   -0.065720
   130  H   -0.020217
   131  H    0.434424
   132  N   -0.582094
   133  C    0.202337
   134  C    0.548458
   135  O   -0.528866
   136  C   -0.322765
   137  H    0.305395
   138  H    0.061361
   139  H    0.104950
   140  H    0.080056
   141  H    0.096444
   142  N   -0.519922
   143  C    0.295715
   144  C    0.344735
   145  O   -0.508043
   146  C   -0.435334
   147  H    0.308967
   148  H    0.045989
   149  H    0.088059
   150  H    0.135349
   151  H    0.130691
   152  N   -0.200441
   153  C   -0.202606
   154  C    0.539834
   155  O   -0.571595
   156  C    0.412818
   157  C   -0.509801
   158  C    0.874620
   159  O   -0.721397
   160  O   -0.750335
   161  H    0.188905
   162  H    0.067970
   163  H    0.015613
   164  H   -0.175349
   165  H    0.087951
   166  H    0.131287
   167  N   -0.147200
   168  C   -0.183807
   169  H    0.057998
   170  H    0.084758
   171  H    0.100275
   172  H    0.207838
   173  Ca   1.515637
   174  O   -0.851810
   175  H    0.426802
   176  H    0.432494
 Sum of ESP charges =   0.00000

 Normal termination of Gaussian 09 at Mon Sep 16 20:18:51 2019.
