 Gaussian 09, Revision D.01,
 Gaussian 09:  ES64L-G09RevD.01 24-Apr-2013

 ----------------------------------------------------------------------
 #maxdisk=50GB #B3LYP/SVP Density=Current scf=(tight) #IOP(5/87=12)Pop=
 (MK,readradii) iop(6/33=2) iop(6/42=6)
 ----------------------------------------------------------------------

 ------------
 SOL molecule
 ------------
 Symbolic Z-matrix:
 Charge =  0 Multiplicity = 1

                         Standard orientation:
 ---------------------------------------------------------------------
 Center     Atomic      Atomic             Coordinates (Angstroms)
 Number     Number       Type             X           Y           Z
 ---------------------------------------------------------------------
      1          6           0        0.913612    4.186795    5.398528
      2          6           0        0.823388    3.544796    4.028310
      3          8           0        1.781619    3.501547    3.257126
      4          1           0        1.910686    4.025462    5.809693
      5          1           0        0.726046    5.256927    5.311942
      6          1           0        0.171315    3.739032    6.060048
      7          7           0       -0.350954    3.083823    3.593195
      8          6           0       -0.719695    2.534172    2.306644
      9          6           0       -1.151675    3.645231    1.347874
     10          8           0       -2.144090    4.345525    1.514308
     11          6           0       -1.864361    1.550037    2.468874
     12          6           0       -2.671378    1.132742    1.249370
     13          8           0       -2.379552    1.492351    0.092038
     14          8           0       -3.743873    0.532389    1.473270
     15          1           0       -1.063836    2.954195    4.303403
     16          1           0        0.119120    1.986311    1.883751
     17          1           0       -2.640656    2.079719    3.011185
     18          1           0       -1.733277    0.647048    3.078405
     19          7           0       -0.315405    3.806349    0.321621
     20          6           0       -0.248694    4.946850   -0.570514
     21          6           0       -1.365380    5.130713   -1.589978
     22          8           0       -1.201725    6.027362   -2.412558
     23          6           0        1.099528    4.954915   -1.272606
     24          6           0        2.364849    5.174737   -0.445357
     25          6           0        2.433379    6.384734    0.485080
     26          6           0        2.118646    7.753321   -0.102298
     27          7           0        2.275214    8.878636    0.836985
     28          1           0        0.350368    3.051971    0.186491
     29          1           0       -0.313369    5.817751    0.089978
     30          1           0        1.117249    5.715995   -2.053658
     31          1           0        1.144445    3.934026   -1.634915
     32          1           0        3.177139    5.215463   -1.175922
     33          1           0        2.432365    4.272170    0.156486
     34          1           0        3.442486    6.452069    0.899047
     35          1           0        1.817635    6.126380    1.347583
     36          1           0        1.147584    7.748016   -0.606292
     37          1           0        2.912653    7.886056   -0.832732
     38          1           0        2.472899    9.770598    0.422106
     39          1           0        1.435390    8.860927    1.406268
     40          1           0        2.967705    8.647889    1.537137
     41          7           0       -2.398313    4.290627   -1.511210
     42          6           0       -3.651462    4.414313   -2.212151
     43          6           0       -4.858785    4.120971   -1.324953
     44          8           0       -5.925089    4.616019   -1.664399
     45          6           0       -3.727292    3.607704   -3.515313
     46          6           0       -3.130203    2.209177   -3.560138
     47          8           0       -3.734851    1.470669   -4.363386
     48          8           0       -2.012757    1.919714   -3.072978
     49          1           0       -2.328571    3.653439   -0.731128
     50          1           0       -3.828924    5.429461   -2.575169
     51          1           0       -3.230487    4.133629   -4.329248
     52          1           0       -4.771733    3.530962   -3.780744
     53          7           0       -4.594710    3.558781   -0.144484
     54          6           0       -5.608885    3.312358    0.852223
     55          6           0       -6.497538    2.129836    0.512756
     56          8           0       -7.691084    2.196575    0.798579
     57          1           0       -3.610333    3.482343    0.088879
     58          1           0       -6.181180    4.198119    1.145153
     59          1           0       -5.016843    2.933214    1.685371
     60          7           0       -5.902832    1.114239   -0.115644
     61          6           0       -6.534776   -0.029888   -0.754488
     62          6           0       -6.508398   -1.269260    0.129967
     63          8           0       -7.093875   -2.293720   -0.210178
     64          6           0       -6.002800   -0.165597   -2.181612
     65          6           0       -4.808833   -1.099799   -2.297410
     66          7           0       -4.861165   -2.111010   -3.181781
     67          8           0       -3.796312   -0.962600   -1.621703
     68          1           0       -4.901886    1.128378   -0.118334
     69          1           0       -7.597197    0.215503   -0.775568
     70          1           0       -5.767769    0.775207   -2.681460
     71          1           0       -6.782540   -0.602246   -2.795326
     72          1           0       -5.704494   -2.434459   -3.627738
     73          1           0       -4.004393   -2.640581   -3.257913
     74          7           0       -5.974179   -1.201794    1.348597
     75          6           0       -5.899238   -2.285986    2.308290
     76          6           0       -4.624299   -3.106523    2.361679
     77          8           0       -4.448147   -3.916222    3.280024
     78          1           0       -5.382904   -0.399839    1.524553
     79          1           0       -6.704854   -2.987009    2.089085
     80          1           0       -6.173771   -1.881111    3.286558
     81          7           0       -3.671047   -2.696367    1.526464
     82          6           0       -2.399221   -3.360694    1.354045
     83          6           0       -1.140341   -2.512596    1.228547
     84          8           0       -1.205894   -1.349090    0.832876
     85          6           0       -2.305703   -4.460060    0.299508
     86          6           0       -3.557351   -5.286704    0.106278
     87          6           0       -4.501033   -4.890312   -0.849147
     88          6           0       -3.748944   -6.497355    0.778451
     89          6           0       -5.640485   -5.672885   -1.070121
     90          6           0       -4.916057   -7.255079    0.618447
     91          6           0       -5.920157   -6.796893   -0.263282
     92          8           0       -6.980713   -7.618143   -0.475344
     93          1           0       -3.773767   -1.800987    1.059192
     94          1           0       -2.252860   -3.856841    2.314783
     95          1           0       -1.476911   -5.074027    0.632148
     96          1           0       -1.995747   -4.081903   -0.668544
     97          1           0       -4.227603   -4.102452   -1.544785
     98          1           0       -3.077089   -6.899640    1.522748
     99          1           0       -6.252659   -5.567217   -1.946921
    100          1           0       -5.029881   -8.200037    1.104451
    101          1           0       -6.837784   -8.294969    0.191722
    102          7           0        0.050210   -3.065421    1.474054
    103          6           0        1.360201   -2.452915    1.433315
    104          6           0        2.283672   -3.483591    0.791281
    105          8           0        2.104053   -4.697556    0.883070
    106          6           0        1.676755   -2.122554    2.892169
    107          6           0        0.998791   -0.825409    3.313929
    108          6           0        3.166765   -1.820213    3.075908
    109          6           0        1.239090   -0.297110    4.724764
    110          1           0        0.113525   -4.055220    1.689667
    111          1           0        1.392986   -1.510935    0.888797
    112          1           0        1.382114   -2.873377    3.622135
    113          1           0       -0.086735   -0.910558    3.218620
    114          1           0        1.280989    0.020604    2.692056
    115          1           0        3.448414   -1.502662    4.081312
    116          1           0        3.761235   -2.721331    2.923948
    117          1           0        3.518785   -1.077559    2.352342
    118          1           0        2.306377   -0.117862    4.884979
    119          1           0        0.680481    0.626344    4.880610
    120          1           0        0.817139   -1.051401    5.388545
    121          7           0        3.232572   -3.046058   -0.032463
    122          6           0        4.196905   -3.851133   -0.752822
    123          6           0        5.630108   -3.525602   -0.358286
    124          8           0        5.800770   -2.790970    0.612121
    125          6           0        3.910971   -3.710193   -2.243888
    126          8           0        4.392649   -2.476932   -2.737905
    127          1           0        3.150648   -2.081596   -0.316719
    128          1           0        4.030993   -4.912537   -0.557897
    129          1           0        2.820962   -3.770185   -2.313760
    130          1           0        4.346419   -4.564126   -2.769325
    131          1           0        3.915939   -2.322703   -3.548436
    132          7           0        6.707026   -4.056353   -0.940910
    133          6           0        8.067083   -3.693144   -0.576872
    134          6           0        8.312663   -2.218014   -0.848500
    135          8           0        8.962007   -1.509704   -0.078273
    136          6           0        9.053090   -4.635233   -1.275842
    137          1           0        6.560892   -4.542796   -1.814362
    138          1           0        8.125621   -3.878665    0.489690
    139          1           0        8.995377   -5.612518   -0.787290
    140          1           0        8.719108   -4.739258   -2.305082
    141          1           0       10.060895   -4.267836   -1.107764
    142          7           0        7.860319   -1.717191   -1.997526
    143          6           0        7.968992   -0.319089   -2.390081
    144          6           0        7.222579    0.674718   -1.523123
    145          8           0        7.761569    1.696340   -1.097943
    146          6           0        7.618243   -0.091067   -3.860755
    147          1           0        7.261489   -2.339741   -2.517367
    148          1           0        9.007411   -0.030293   -2.284329
    149          1           0        8.031074    0.824095   -4.284250
    150          1           0        8.242373   -0.766157   -4.427602
    151          1           0        6.600483   -0.321102   -4.186099
    152          7           0        6.041295    0.319700   -1.010649
    153          6           0        5.377109    1.120969   -0.001677
    154          6           0        5.899661    0.970633    1.418513
    155          8           0        6.190575    2.005742    2.022514
    156          6           0        3.863854    0.929006   -0.039210
    157          6           0        3.061730    1.373476   -1.264912
    158          6           0        1.645355    0.824754   -1.329595
    159          8           0        0.730207    1.354931   -0.666784
    160          8           0        1.363773   -0.145284   -2.059209
    161          1           0        5.620361   -0.543854   -1.323680
    162          1           0        5.467908    2.182705   -0.225893
    163          1           0        3.325230    1.475151    0.737070
    164          1           0        3.663917   -0.119608    0.164589
    165          1           0        3.644842    1.121093   -2.158770
    166          1           0        3.048712    2.446686   -1.137432
    167          7           0        6.316941   -0.209991    1.857721
    168          6           0        7.162329   -0.382766    3.026767
    169          1           0        7.897894   -1.163402    2.830836
    170          1           0        7.676794    0.553416    3.245531
    171          1           0        6.548619   -0.668528    3.881353
    172          1           0        6.266441   -0.962483    1.193487
    173         20           0       -1.360941   -0.059062   -1.677241
    174          8           0       -0.664357   -2.543453   -2.266032
    175          1           0        0.088895   -3.067173   -2.578489
    176          1           0       -1.419779   -2.953804   -2.689175
 ---------------------------------------------------------------------

 SCF Done:  E(RB3LYP) =  -5333.54208487     A.U. after   18 cycles

 The electronic state is 1-A.
 Alpha  occ. eigenvalues -- -145.36938 -19.20818 -19.19301 -19.15657 -19.13528
 Alpha  occ. eigenvalues --  -19.12200 -19.12062 -19.11109 -19.10783 -19.08758
 Alpha  occ. eigenvalues --  -19.08623 -19.08531 -19.07297 -19.07166 -19.06896
 Alpha  occ. eigenvalues --  -19.06681 -19.05880 -19.05552 -19.05516 -19.04583
 Alpha  occ. eigenvalues --  -19.04329 -19.04182 -19.02274 -18.99850 -15.42709
 Alpha  occ. eigenvalues --  -14.57829 -14.39997 -14.38112 -14.37637 -14.36738
 Alpha  occ. eigenvalues --  -14.36574 -14.35227 -14.35172 -14.33055 -14.32899
 Alpha  occ. eigenvalues --  -14.32062 -14.31684 -14.30907 -14.30526 -14.29651
 Alpha  occ. eigenvalues --  -12.56315 -12.56294 -12.56262 -10.33270 -10.32512
 Alpha  occ. eigenvalues --  -10.30880 -10.30283 -10.30019 -10.29747 -10.28971
 Alpha  occ. eigenvalues --  -10.28290 -10.27681 -10.27528 -10.26755 -10.26369
 Alpha  occ. eigenvalues --  -10.26352 -10.25896 -10.25658 -10.25163 -10.25062
 Alpha  occ. eigenvalues --  -10.24914 -10.24913 -10.24659 -10.24493 -10.24086
 Alpha  occ. eigenvalues --  -10.23090 -10.23078 -10.22826 -10.22611 -10.22244
 Alpha  occ. eigenvalues --  -10.21916 -10.21764 -10.21648 -10.20809 -10.20780
 Alpha  occ. eigenvalues --  -10.20369 -10.20272 -10.19702 -10.19475 -10.19388
 Alpha  occ. eigenvalues --  -10.19385 -10.19033 -10.18879 -10.18569 -10.18462
 Alpha  occ. eigenvalues --  -10.18327 -10.18284 -10.18063 -10.18008 -10.17993
 Alpha  occ. eigenvalues --  -10.17866 -10.17797 -10.17099 -10.17046 -10.17024
 Alpha  occ. eigenvalues --  -10.16710 -10.12300  -1.79537  -1.13005  -1.07923
 Alpha  occ. eigenvalues --   -1.07437  -1.07047  -1.06990  -1.06980  -1.05953
 Alpha  occ. eigenvalues --   -1.05628  -1.04990  -1.04632  -1.04114  -1.04003
 Alpha  occ. eigenvalues --   -1.02414  -1.02316  -1.01912  -1.01497  -1.00144
 Alpha  occ. eigenvalues --   -0.99620  -0.99430  -0.99076  -0.98838  -0.97851
 Alpha  occ. eigenvalues --   -0.96735  -0.96537  -0.95564  -0.94871  -0.93699
 Alpha  occ. eigenvalues --   -0.93687  -0.91666  -0.91408  -0.91235  -0.91011
 Alpha  occ. eigenvalues --   -0.90910  -0.90351  -0.89865  -0.89405  -0.88380
 Alpha  occ. eigenvalues --   -0.88201  -0.87281  -0.86957  -0.86409  -0.85671
 Alpha  occ. eigenvalues --   -0.84030  -0.83073  -0.81893  -0.80154  -0.80054
 Alpha  occ. eigenvalues --   -0.79209  -0.78527  -0.78053  -0.77635  -0.76187
 Alpha  occ. eigenvalues --   -0.75109  -0.74900  -0.73723  -0.73473  -0.72960
 Alpha  occ. eigenvalues --   -0.72647  -0.72583  -0.72084  -0.70768  -0.70656
 Alpha  occ. eigenvalues --   -0.70264  -0.69784  -0.68791  -0.68474  -0.67944
 Alpha  occ. eigenvalues --   -0.67675  -0.66369  -0.65494  -0.64934  -0.64731
 Alpha  occ. eigenvalues --   -0.64388  -0.63195  -0.62167  -0.61636  -0.61594
 Alpha  occ. eigenvalues --   -0.61408  -0.60966  -0.60606  -0.60190  -0.59666
 Alpha  occ. eigenvalues --   -0.59621  -0.59501  -0.59105  -0.58941  -0.58667
 Alpha  occ. eigenvalues --   -0.58284  -0.56920  -0.56804  -0.56737  -0.56342
 Alpha  occ. eigenvalues --   -0.56183  -0.56081  -0.55742  -0.55490  -0.55106
 Alpha  occ. eigenvalues --   -0.54837  -0.54648  -0.54166  -0.53661  -0.53363
 Alpha  occ. eigenvalues --   -0.53133  -0.52960  -0.52454  -0.51899  -0.51719
 Alpha  occ. eigenvalues --   -0.51406  -0.51249  -0.50994  -0.50080  -0.49957
 Alpha  occ. eigenvalues --   -0.49816  -0.49307  -0.49086  -0.48894  -0.48626
 Alpha  occ. eigenvalues --   -0.48565  -0.48370  -0.47930  -0.47805  -0.47587
 Alpha  occ. eigenvalues --   -0.47413  -0.47377  -0.47300  -0.47069  -0.46849
 Alpha  occ. eigenvalues --   -0.46307  -0.46133  -0.46022  -0.45879  -0.45737
 Alpha  occ. eigenvalues --   -0.45501  -0.45250  -0.45220  -0.45114  -0.44688
 Alpha  occ. eigenvalues --   -0.44622  -0.44497  -0.44407  -0.44340  -0.43996
 Alpha  occ. eigenvalues --   -0.43660  -0.43584  -0.43479  -0.43339  -0.43238
 Alpha  occ. eigenvalues --   -0.43051  -0.42765  -0.42509  -0.42269  -0.42117
 Alpha  occ. eigenvalues --   -0.42042  -0.41916  -0.41794  -0.41734  -0.41580
 Alpha  occ. eigenvalues --   -0.41490  -0.41460  -0.41277  -0.41110  -0.41024
 Alpha  occ. eigenvalues --   -0.40821  -0.40466  -0.40438  -0.40285  -0.40065
 Alpha  occ. eigenvalues --   -0.39938  -0.39807  -0.39743  -0.39609  -0.39480
 Alpha  occ. eigenvalues --   -0.39410  -0.39258  -0.39184  -0.39016  -0.38857
 Alpha  occ. eigenvalues --   -0.38745  -0.38398  -0.38278  -0.38240  -0.38057
 Alpha  occ. eigenvalues --   -0.37947  -0.37801  -0.37646  -0.37464  -0.37370
 Alpha  occ. eigenvalues --   -0.37241  -0.37201  -0.37029  -0.36860  -0.36269
 Alpha  occ. eigenvalues --   -0.36220  -0.36151  -0.35973  -0.35780  -0.35708
 Alpha  occ. eigenvalues --   -0.35515  -0.35436  -0.35405  -0.35130  -0.34772
 Alpha  occ. eigenvalues --   -0.34548  -0.34386  -0.34266  -0.33925  -0.33871
 Alpha  occ. eigenvalues --   -0.33313  -0.33175  -0.33131  -0.33031  -0.32851
 Alpha  occ. eigenvalues --   -0.32721  -0.32505  -0.32347  -0.32292  -0.32094
 Alpha  occ. eigenvalues --   -0.31631  -0.31540  -0.31404  -0.30568  -0.29653
 Alpha  occ. eigenvalues --   -0.29402  -0.29197  -0.28869  -0.28589  -0.28342
 Alpha  occ. eigenvalues --   -0.27623  -0.27350  -0.27123  -0.26794  -0.26409
 Alpha  occ. eigenvalues --   -0.26262  -0.26137  -0.26024  -0.25036  -0.24824
 Alpha  occ. eigenvalues --   -0.24801  -0.24418  -0.24327  -0.24081  -0.24065
 Alpha  occ. eigenvalues --   -0.23643  -0.23408  -0.23150  -0.22778  -0.22752
 Alpha  occ. eigenvalues --   -0.22526  -0.22091  -0.21727  -0.21551  -0.21368
 Alpha  occ. eigenvalues --   -0.21176  -0.20713  -0.19771  -0.19604  -0.19349
 Alpha  occ. eigenvalues --   -0.19163  -0.18275  -0.15799
 Alpha virt. eigenvalues --   -0.09718  -0.04311  -0.03623  -0.03400  -0.02665
 Alpha virt. eigenvalues --   -0.01537  -0.00882  -0.00571  -0.00348   0.00055
 Alpha virt. eigenvalues --    0.00106   0.00719   0.01078   0.01362   0.01452

 Mulliken charges:
               1
     1  C    0.068635
     2  C    0.005250
     3  O   -0.300988
     4  H    0.039605
     5  H    0.029084
     6  H    0.010202
     7  N   -0.109834
     8  C    0.167034
     9  C    0.031602
    10  O   -0.299474
    11  C    0.035171
    12  C    0.171418
    13  O   -0.463678
    14  O   -0.403410
    15  H    0.112815
    16  H    0.018160
    17  H   -0.001653
    18  H    0.015632
    19  N   -0.154951
    20  C    0.144732
    21  C    0.068304
    22  O   -0.308104
    23  C   -0.038881
    24  C    0.031645
    25  C   -0.042532
    26  C    0.000069
    27  N    0.086980
    28  H    0.150072
    29  H   -0.037472
    30  H    0.016214
    31  H    0.037029
    32  H    0.018171
    33  H    0.051845
    34  H    0.018530
    35  H    0.040196
    36  H    0.108932
    37  H    0.058396
    38  H    0.199033
    39  H    0.196015
    40  H    0.179694
    41  N   -0.093863
    42  C    0.132636
    43  C    0.048888
    44  O   -0.275522
    45  C    0.063549
    46  C    0.107913
    47  O   -0.388469
    48  O   -0.476961
    49  H    0.165957
    50  H    0.002758
    51  H    0.011659
    52  H    0.002521
    53  N   -0.186140
    54  C    0.254818
    55  C    0.002023
    56  O   -0.278262
    57  H    0.142064
    58  H    0.018400
    59  H    0.006412
    60  N   -0.172471
    61  C    0.152254
    62  C    0.025259
    63  O   -0.300509
    64  C    0.129384
    65  C    0.087932
    66  N   -0.036249
    67  O   -0.371255
    68  H    0.136709
    69  H    0.034658
    70  H    0.080512
    71  H   -0.016168
    72  H    0.141134
    73  H    0.112276
    74  N   -0.156224
    75  C    0.213025
    76  C    0.061814
    77  O   -0.298059
    78  H    0.143746
    79  H    0.034606
    80  H    0.030062
    81  N   -0.142762
    82  C    0.130417
    83  C    0.111903
    84  O   -0.333068
    85  C    0.151045
    86  C   -0.015633
    87  C    0.048617
    88  C    0.018260
    89  C   -0.000416
    90  C   -0.063632
    91  C    0.150788
    92  O   -0.173629
    93  H    0.150867
    94  H    0.000509
    95  H   -0.023676
    96  H   -0.077135
    97  H   -0.096229
    98  H   -0.033463
    99  H   -0.029613
   100  H   -0.049235
   101  H    0.167949
   102  N   -0.129555
   103  C    0.152985
   104  C    0.073334
   105  O   -0.289614
   106  C   -0.068174
   107  C   -0.046049
   108  C    0.053075
   109  C    0.039163
   110  H    0.135812
   111  H    0.019857
   112  H   -0.013597
   113  H    0.016210
   114  H    0.020222
   115  H    0.012320
   116  H    0.004751
   117  H    0.007676
   118  H    0.021966
   119  H   -0.008575
   120  H   -0.000950
   121  N   -0.119779
   122  C    0.112028
   123  C    0.086900
   124  O   -0.268852
   125  C    0.177536
   126  O   -0.291350
   127  H    0.134560
   128  H    0.046786
   129  H    0.007637
   130  H    0.001096
   131  H    0.182950
   132  N   -0.142009
   133  C    0.098018
   134  C    0.050225
   135  O   -0.255310
   136  C    0.065294
   137  H    0.110863
   138  H    0.023425
   139  H    0.032373
   140  H    0.002203
   141  H    0.048779
   142  N   -0.124878
   143  C    0.116370
   144  C    0.075042
   145  O   -0.258962
   146  C    0.039749
   147  H    0.089825
   148  H    0.017028
   149  H    0.034159
   150  H   -0.005009
   151  H    0.017074
   152  N   -0.147025
   153  C    0.179298
   154  C    0.059698
   155  O   -0.288358
   156  C   -0.093786
   157  C    0.159849
   158  C    0.121845
   159  O   -0.408952
   160  O   -0.432019
   161  H    0.107297
   162  H   -0.003668
   163  H    0.039967
   164  H   -0.032641
   165  H   -0.023195
   166  H   -0.031890
   167  N   -0.156480
   168  C    0.139132
   169  H    0.019694
   170  H    0.033931
   171  H    0.007924
   172  H    0.126671
   173  Ca   1.278955
   174  O   -0.271142
   175  H    0.193203
   176  H    0.182895
 Sum of Mulliken charges =   0.00000

 Dipole moment (field-independent basis, Debye):
    X=             25.0470    Y=              6.0593    Z=             -0.8904  Tot=             25.7849
 Quadrupole moment (field-independent basis, Debye-Ang):
   XX=           -711.2367   YY=           -286.4472   ZZ=           -550.4360
   XY=             57.3650   XZ=            -47.5319   YZ=            101.6369

 ESP charges:
               1
     1  C   -0.478675
     2  C    0.786131
     3  O   -0.628615
     4  H    0.138377
     5  H    0.129180
     6  H    0.111746
     7  N   -0.666910
     8  C    0.487688
     9  C    0.360040
    10  O   -0.516874
    11  C   -0.682281
    12  C    0.685230
    13  O   -0.490144
    14  O   -0.588255
    15  H    0.313178
    16  H   -0.081349
    17  H    0.176193
    18  H    0.185196
    19  N   -0.190426
    20  C    0.175339
    21  C    0.361199
    22  O   -0.557413
    23  C    0.026501
    24  C   -0.269104
    25  C    0.111971
    26  C    0.169244
    27  N   -0.415092
    28  H    0.234475
    29  H   -0.003850
    30  H    0.022656
    31  H   -0.003687
    32  H    0.079774
    33  H    0.114693
    34  H    0.002343
    35  H   -0.021499
    36  H    0.028757
    37  H    0.041995
    38  H    0.356188
    39  H    0.333144
    40  H    0.313178
    41  N    0.062977
    42  C   -0.150955
    43  C    0.442341
    44  O   -0.517918
    45  C   -0.015257
    46  C    0.797020
    47  O   -0.734558
    48  O   -0.785048
    49  H   -0.194205
    50  H    0.097635
    51  H    0.039298
    52  H    0.007375
    53  N   -0.056540
    54  C   -0.183682
    55  C    0.527607
    56  O   -0.565731
    57  H    0.134918
    58  H    0.102928
    59  H    0.100165
    60  N   -0.093871
    61  C   -0.303877
    62  C    0.541810
    63  O   -0.545161
    64  C    0.125989
    65  C    0.508161
    66  N   -0.757360
    67  O   -0.481662
    68  H   -0.038322
    69  H    0.168638
    70  H    0.063936
    71  H    0.011757
    72  H    0.388316
    73  H    0.351199
    74  N   -0.260141
    75  C   -0.183338
    76  C    0.644908
    77  O   -0.588051
    78  H    0.224771
    79  H    0.118439
    80  H    0.099245
    81  N   -0.357902
    82  C    0.269820
    83  C    0.497216
    84  O   -0.529245
    85  C    0.021648
    86  C   -0.069200
    87  C   -0.120274
    88  C   -0.102839
    89  C   -0.258428
    90  C   -0.355235
    91  C    0.422538
    92  O   -0.522292
    93  H    0.157470
    94  H    0.001000
    95  H    0.000589
    96  H   -0.031959
    97  H    0.112200
    98  H    0.138102
    99  H    0.153747
   100  H    0.154946
   101  H    0.383176
   102  N   -0.686814
   103  C    0.380678
   104  C    0.485357
   105  O   -0.551965
   106  C   -0.252146
   107  C    0.459527
   108  C   -0.035164
   109  C   -0.430356
   110  H    0.328339
   111  H   -0.059365
   112  H    0.072762
   113  H   -0.058787
   114  H    0.025350
   115  H    0.064210
   116  H    0.011462
   117  H   -0.159473
   118  H    0.096402
   119  H    0.094457
   120  H    0.067212
   121  N   -0.181223
   122  C   -0.085170
   123  C    0.567077
   124  O   -0.436706
   125  C    0.044292
   126  O   -0.536702
   127  H    0.191526
   128  H    0.112830
   129  H    0.062046
   130  H    0.033148
   131  H    0.410301
   132  N   -0.570927
   133  C    0.230563
   134  C    0.453824
   135  O   -0.507021
   136  C   -0.446663
   137  H    0.329640
   138  H    0.086078
   139  H    0.137766
   140  H    0.107210
   141  H    0.154991
   142  N   -0.397046
   143  C    0.147525
   144  C    0.308837
   145  O   -0.499793
   146  C   -0.367867
   147  H    0.235884
   148  H    0.112969
   149  H    0.134715
   150  H    0.086592
   151  H    0.098480
   152  N   -0.170589
   153  C    0.421494
   154  C    0.270419
   155  O   -0.552777
   156  C   -0.376364
   157  C   -0.288549
   158  C    0.843438
   159  O   -0.664517
   160  O   -0.750143
   161  H    0.165658
   162  H   -0.006278
   163  H    0.132041
   164  H    0.135755
   165  H    0.027521
   166  H    0.102646
   167  N    0.157033
   168  C   -0.187914
   169  H    0.069323
   170  H    0.104523
   171  H    0.044485
   172  H   -0.039613
   173  Ca   1.422376
   174  O   -0.710165
   175  H    0.406704
   176  H    0.355554
 Sum of ESP charges =   0.00000

 Normal termination of Gaussian 09 at Mon Sep 16 19:28:12 2019.
