 Gaussian 09, Revision D.01,
 Gaussian 09:  ES64L-G09RevD.01 24-Apr-2013

 ----------------------------------------------------------------------
 #maxdisk=50GB #B3LYP/SVP Density=Current scf=(tight) #IOP(5/87=12)Pop=
 (MK,readradii) iop(6/33=2) iop(6/42=6)
 ----------------------------------------------------------------------

 ------------
 SOL molecule
 ------------
 Symbolic Z-matrix:
 Charge =  0 Multiplicity = 1

                         Standard orientation:
 ---------------------------------------------------------------------
 Center     Atomic      Atomic             Coordinates (Angstroms)
 Number     Number       Type             X           Y           Z
 ---------------------------------------------------------------------
      1          6           0        1.786206    2.332816    5.517037
      2          6           0        1.147706    2.222026    4.135826
      3          8           0        1.900047    2.038136    3.181956
      4          1           0        1.469207    1.490086    6.132266
      5          1           0        2.871855    2.320744    5.418132
      6          1           0        1.473272    3.264183    5.988661
      7          7           0       -0.167806    2.343037    3.968544
      8          6           0       -0.826244    2.341512    2.673725
      9          6           0       -0.702683    3.671187    1.945372
     10          8           0       -1.226743    4.690414    2.386211
     11          6           0       -2.178363    1.636935    2.707599
     12          6           0       -2.992409    1.819034    1.438636
     13          8           0       -4.202806    2.119782    1.497727
     14          8           0       -2.399227    1.672914    0.349332
     15          1           0       -0.683409    2.632958    4.789701
     16          1           0       -0.263608    1.677147    2.014059
     17          1           0       -2.821470    2.127966    3.437120
     18          1           0       -2.029142    0.572971    2.873468
     19          7           0       -0.178720    3.729878    0.717643
     20          6           0        0.112594    4.900952   -0.079301
     21          6           0       -0.715474    5.040169   -1.356298
     22          8           0       -0.463093    5.961029   -2.118939
     23          6           0        1.603873    5.182950   -0.204064
     24          6           0        2.254038    5.119618    1.165087
     25          6           0        3.656252    5.728454    1.168949
     26          6           0        3.962093    6.497934    2.452872
     27          7           0        4.261009    5.693854    3.646482
     28          1           0        0.251923    2.878178    0.404508
     29          1           0       -0.228593    5.781550    0.458695
     30          1           0        1.749102    6.144737   -0.699415
     31          1           0        1.986263    4.363810   -0.818382
     32          1           0        2.318627    4.127876    1.615949
     33          1           0        1.607812    5.718563    1.809491
     34          1           0        3.689659    6.574534    0.478129
     35          1           0        4.431917    4.999987    0.927744
     36          1           0        3.203343    7.237813    2.703226
     37          1           0        4.828882    7.139045    2.335169
     38          1           0        3.388171    5.294097    3.955266
     39          1           0        4.938859    4.967220    3.441732
     40          1           0        4.536863    6.258635    4.432311
     41          7           0       -1.772187    4.252362   -1.568002
     42          6           0       -2.797069    4.574747   -2.545644
     43          6           0       -4.211790    4.228544   -2.099764
     44          8           0       -5.120883    4.138217   -2.918782
     45          6           0       -2.570734    3.909108   -3.893642
     46          6           0       -2.310622    2.413243   -3.918731
     47          8           0       -1.961110    1.861220   -4.980339
     48          8           0       -2.527659    1.759717   -2.877194
     49          1           0       -2.086534    3.711501   -0.771286
     50          1           0       -2.774150    5.659460   -2.662143
     51          1           0       -1.633121    4.372326   -4.193658
     52          1           0       -3.317811    4.169849   -4.641231
     53          7           0       -4.514593    4.151464   -0.798891
     54          6           0       -5.902584    4.037726   -0.408196
     55          6           0       -6.601535    2.702082   -0.597988
     56          8           0       -7.808157    2.631894   -0.345526
     57          1           0       -3.868520    4.461745   -0.084948
     58          1           0       -6.382683    4.884786   -0.905080
     59          1           0       -5.900299    4.187677    0.679421
     60          7           0       -5.852396    1.631014   -0.843759
     61          6           0       -6.312589    0.316397   -1.238862
     62          6           0       -6.267360   -0.625163   -0.038729
     63          8           0       -6.721231   -1.749846   -0.201484
     64          6           0       -5.730246   -0.109798   -2.581819
     65          6           0       -4.528723   -1.039343   -2.517881
     66          7           0       -4.615119   -2.171578   -3.219436
     67          8           0       -3.658359   -0.869021   -1.672389
     68          1           0       -4.927628    1.736518   -0.444293
     69          1           0       -7.368605    0.484636   -1.463862
     70          1           0       -5.473850    0.729370   -3.239055
     71          1           0       -6.551666   -0.616669   -3.098010
     72          1           0       -5.324604   -2.306298   -3.925822
     73          1           0       -3.848013   -2.820181   -3.336752
     74          7           0       -5.814768   -0.302414    1.170401
     75          6           0       -5.771594   -1.179008    2.326091
     76          6           0       -4.600097   -2.150280    2.366423
     77          8           0       -4.509431   -2.856523    3.363920
     78          1           0       -5.454599    0.633167    1.261320
     79          1           0       -6.682706   -1.773663    2.435000
     80          1           0       -5.754602   -0.517823    3.186059
     81          7           0       -3.721888   -2.263895    1.365454
     82          6           0       -2.666087   -3.250037    1.375898
     83          6           0       -1.280916   -2.685413    1.072913
     84          8           0       -1.136033   -1.571631    0.563502
     85          6           0       -3.001959   -4.379584    0.410801
     86          6           0       -4.398544   -4.934844    0.559248
     87          6           0       -5.052943   -5.045372   -0.683590
     88          6           0       -4.896390   -5.311353    1.807202
     89          6           0       -6.365136   -5.521752   -0.680250
     90          6           0       -6.229370   -5.759312    1.769798
     91          6           0       -6.967646   -5.790539    0.561256
     92          8           0       -8.289521   -6.136835    0.584195
     93          1           0       -3.846038   -1.671466    0.560895
     94          1           0       -2.606164   -3.666708    2.375095
     95          1           0       -2.276659   -5.152237    0.667603
     96          1           0       -2.807946   -3.929188   -0.564341
     97          1           0       -4.609357   -4.706907   -1.608885
     98          1           0       -4.280717   -5.242836    2.682161
     99          1           0       -6.932757   -5.634700   -1.588627
    100          1           0       -6.755805   -6.081461    2.653023
    101          1           0       -8.579553   -6.153611    1.491112
    102          7           0       -0.250830   -3.390998    1.535162
    103          6           0        1.143292   -2.990846    1.409852
    104          6           0        1.729170   -3.697879    0.202975
    105          8           0        1.719628   -4.930689    0.140621
    106          6           0        1.938787   -3.292314    2.676187
    107          6           0        1.212371   -2.828414    3.932418
    108          6           0        3.406242   -2.847562    2.632932
    109          6           0        0.808518   -1.372180    4.108730
    110          1           0       -0.418854   -4.253016    2.035655
    111          1           0        1.150218   -1.918634    1.251069
    112          1           0        2.079427   -4.371110    2.625016
    113          1           0        1.858895   -3.111365    4.762446
    114          1           0        0.311647   -3.430452    4.075056
    115          1           0        3.962446   -3.104592    3.532027
    116          1           0        3.910153   -3.376396    1.825338
    117          1           0        3.475289   -1.770517    2.539092
    118          1           0        0.535818   -1.110123    5.127681
    119          1           0        1.529120   -0.621124    3.796241
    120          1           0        0.095294   -1.115927    3.326014
    121          7           0        2.472118   -3.015713   -0.677013
    122          6           0        3.317311   -3.531690   -1.738104
    123          6           0        4.792341   -3.415775   -1.396120
    124          8           0        5.186949   -2.875760   -0.361728
    125          6           0        3.033458   -2.761368   -3.026759
    126          8           0        3.199768   -1.363023   -2.914185
    127          1           0        2.454872   -2.008095   -0.623091
    128          1           0        3.123774   -4.575650   -2.001906
    129          1           0        2.016827   -2.997149   -3.367155
    130          1           0        3.676244   -3.127716   -3.823763
    131          1           0        2.527687   -1.004014   -2.338061
    132          7           0        5.689949   -3.769524   -2.319246
    133          6           0        7.125581   -3.737282   -2.084251
    134          6           0        7.746428   -2.371623   -1.831221
    135          8           0        8.499960   -2.091291   -0.896019
    136          6           0        7.677631   -4.467138   -3.309425
    137          1           0        5.272950   -4.308034   -3.073645
    138          1           0        7.325849   -4.254685   -1.153291
    139          1           0        8.740175   -4.616582   -3.109004
    140          1           0        7.044461   -5.334650   -3.461472
    141          1           0        7.758207   -3.705365   -4.080664
    142          7           0        7.406916   -1.397055   -2.681485
    143          6           0        7.605213    0.026290   -2.484344
    144          6           0        7.206151    0.533931   -1.111809
    145          8           0        7.931095    1.308969   -0.489416
    146          6           0        6.734830    0.641964   -3.566923
    147          1           0        6.835971   -1.671296   -3.469974
    148          1           0        8.632595    0.346375   -2.662481
    149          1           0        7.162840    0.354659   -4.535460
    150          1           0        5.747194    0.192555   -3.464915
    151          1           0        6.683565    1.723240   -3.498260
    152          7           0        6.084418    0.016775   -0.600865
    153          6           0        5.523235    0.614586    0.598216
    154          6           0        6.251624    0.005343    1.782266
    155          8           0        6.516910    0.721336    2.737869
    156          6           0        4.009198    0.391392    0.647984
    157          6           0        3.199586    1.199566   -0.360769
    158          6           0        1.768639    0.747952   -0.605993
    159          8           0        0.741989    1.403949   -0.324111
    160          8           0        1.577722   -0.318420   -1.240187
    161          1           0        5.588871   -0.670829   -1.144311
    162          1           0        5.652515    1.692261    0.545262
    163          1           0        3.685744    0.632870    1.666201
    164          1           0        3.748877   -0.644681    0.421300
    165          1           0        3.721060    1.191462   -1.314760
    166          1           0        3.083686    2.236526   -0.029887
    167          7           0        6.508497   -1.307057    1.742002
    168          6           0        7.350707   -1.980291    2.707993
    169          1           0        6.748891   -2.679147    3.288850
    170          1           0        8.137818   -2.525360    2.187354
    171          1           0        7.798067   -1.244388    3.376471
    172          1           0        6.258976   -1.873103    0.941857
    173         20           0       -1.201542    0.148658   -1.367168
    174          8           0       -0.031938    0.568572   -3.742877
    175          1           0        0.321944   -0.108786   -4.317379
    176          1           0       -0.712436    0.992565   -4.270657
 ---------------------------------------------------------------------

 SCF Done:  E(RB3LYP) =  -5333.61094656     A.U. after   15 cycles

 The electronic state is 1-A.
 Alpha  occ. eigenvalues -- -145.37262 -19.14560 -19.13890 -19.13653 -19.12794
 Alpha  occ. eigenvalues --  -19.12170 -19.11637 -19.11168 -19.10704 -19.10585
 Alpha  occ. eigenvalues --  -19.10570 -19.10282 -19.09141 -19.07911 -19.07445
 Alpha  occ. eigenvalues --  -19.07408 -19.07044 -19.05753 -19.05571 -19.05170
 Alpha  occ. eigenvalues --  -19.05119 -19.04505 -19.03043 -19.02065 -15.43056
 Alpha  occ. eigenvalues --  -14.57375 -14.39380 -14.38444 -14.37588 -14.37130
 Alpha  occ. eigenvalues --  -14.37104 -14.36331 -14.34813 -14.34172 -14.32767
 Alpha  occ. eigenvalues --  -14.32505 -14.32157 -14.31835 -14.31253 -14.29320
 Alpha  occ. eigenvalues --  -12.56673 -12.56625 -12.56610 -10.33991 -10.31697
 Alpha  occ. eigenvalues --  -10.31693 -10.30713 -10.30591 -10.29954 -10.29801
 Alpha  occ. eigenvalues --  -10.29258 -10.27675 -10.26913 -10.26630 -10.26495
 Alpha  occ. eigenvalues --  -10.26320 -10.26182 -10.26050 -10.25964 -10.25853
 Alpha  occ. eigenvalues --  -10.25094 -10.24947 -10.24600 -10.23881 -10.23838
 Alpha  occ. eigenvalues --  -10.23565 -10.23547 -10.23470 -10.22895 -10.22708
 Alpha  occ. eigenvalues --  -10.22656 -10.22556 -10.22467 -10.22295 -10.21998
 Alpha  occ. eigenvalues --  -10.21065 -10.21053 -10.20350 -10.20284 -10.20117
 Alpha  occ. eigenvalues --  -10.20070 -10.19748 -10.19702 -10.19287 -10.19251
 Alpha  occ. eigenvalues --  -10.19168 -10.18717 -10.18370 -10.18333 -10.18122
 Alpha  occ. eigenvalues --  -10.17946 -10.17822 -10.17801 -10.17696 -10.17651
 Alpha  occ. eigenvalues --  -10.17189 -10.13003  -1.79900  -1.12760  -1.07846
 Alpha  occ. eigenvalues --   -1.07462  -1.07330  -1.06989  -1.06094  -1.05674
 Alpha  occ. eigenvalues --   -1.04833  -1.04559  -1.04174  -1.03500  -1.03410
 Alpha  occ. eigenvalues --   -1.02065  -1.01646  -1.01592  -1.01298  -1.00581
 Alpha  occ. eigenvalues --   -1.00336  -1.00256  -0.99664  -0.98811  -0.98254
 Alpha  occ. eigenvalues --   -0.97099  -0.96439  -0.96203  -0.95143  -0.94948
 Alpha  occ. eigenvalues --   -0.93848  -0.93672  -0.92687  -0.92001  -0.91924
 Alpha  occ. eigenvalues --   -0.91182  -0.90706  -0.90311  -0.89128  -0.89080
 Alpha  occ. eigenvalues --   -0.88631  -0.87732  -0.87640  -0.87377  -0.86766
 Alpha  occ. eigenvalues --   -0.83736  -0.82991  -0.82376  -0.80994  -0.80195
 Alpha  occ. eigenvalues --   -0.78895  -0.78756  -0.78500  -0.77538  -0.76272
 Alpha  occ. eigenvalues --   -0.75782  -0.75086  -0.74637  -0.73627  -0.73347
 Alpha  occ. eigenvalues --   -0.73107  -0.72903  -0.72539  -0.71714  -0.70751
 Alpha  occ. eigenvalues --   -0.70188  -0.69257  -0.68936  -0.68512  -0.68275
 Alpha  occ. eigenvalues --   -0.67234  -0.66093  -0.66031  -0.65885  -0.65080
 Alpha  occ. eigenvalues --   -0.64639  -0.63254  -0.63035  -0.62490  -0.61710
 Alpha  occ. eigenvalues --   -0.61665  -0.61438  -0.60790  -0.60693  -0.60544
 Alpha  occ. eigenvalues --   -0.60201  -0.59988  -0.58759  -0.58678  -0.57921
 Alpha  occ. eigenvalues --   -0.57792  -0.57401  -0.57210  -0.56787  -0.56162
 Alpha  occ. eigenvalues --   -0.55841  -0.55571  -0.55208  -0.55123  -0.54753
 Alpha  occ. eigenvalues --   -0.54540  -0.54169  -0.53616  -0.53515  -0.53239
 Alpha  occ. eigenvalues --   -0.53174  -0.53004  -0.52578  -0.52375  -0.52000
 Alpha  occ. eigenvalues --   -0.51841  -0.51188  -0.50741  -0.50707  -0.50339
 Alpha  occ. eigenvalues --   -0.50234  -0.50019  -0.49409  -0.49347  -0.49123
 Alpha  occ. eigenvalues --   -0.48955  -0.48797  -0.48607  -0.48508  -0.48184
 Alpha  occ. eigenvalues --   -0.47956  -0.47832  -0.47751  -0.47152  -0.47027
 Alpha  occ. eigenvalues --   -0.46623  -0.46477  -0.46405  -0.46114  -0.46062
 Alpha  occ. eigenvalues --   -0.45899  -0.45341  -0.45198  -0.45102  -0.45033
 Alpha  occ. eigenvalues --   -0.44881  -0.44745  -0.44617  -0.44310  -0.44287
 Alpha  occ. eigenvalues --   -0.44223  -0.44085  -0.43966  -0.43854  -0.43688
 Alpha  occ. eigenvalues --   -0.43313  -0.43306  -0.43241  -0.43010  -0.42981
 Alpha  occ. eigenvalues --   -0.42707  -0.42541  -0.42447  -0.42226  -0.42159
 Alpha  occ. eigenvalues --   -0.41972  -0.41807  -0.41721  -0.41475  -0.41240
 Alpha  occ. eigenvalues --   -0.41169  -0.41062  -0.40751  -0.40568  -0.40326
 Alpha  occ. eigenvalues --   -0.40240  -0.40162  -0.40046  -0.39845  -0.39821
 Alpha  occ. eigenvalues --   -0.39563  -0.39520  -0.39469  -0.39282  -0.39141
 Alpha  occ. eigenvalues --   -0.38989  -0.38922  -0.38845  -0.38814  -0.38545
 Alpha  occ. eigenvalues --   -0.38346  -0.38196  -0.38108  -0.37831  -0.37722
 Alpha  occ. eigenvalues --   -0.37642  -0.37617  -0.37470  -0.37281  -0.37088
 Alpha  occ. eigenvalues --   -0.36907  -0.36552  -0.36515  -0.36193  -0.36116
 Alpha  occ. eigenvalues --   -0.35803  -0.35642  -0.35638  -0.35355  -0.35253
 Alpha  occ. eigenvalues --   -0.35049  -0.34832  -0.34574  -0.34295  -0.34121
 Alpha  occ. eigenvalues --   -0.34063  -0.33803  -0.33385  -0.33341  -0.33088
 Alpha  occ. eigenvalues --   -0.32987  -0.32729  -0.32025  -0.31914  -0.31648
 Alpha  occ. eigenvalues --   -0.30885  -0.30717  -0.30430  -0.30056  -0.29825
 Alpha  occ. eigenvalues --   -0.29798  -0.29528  -0.29470  -0.29120  -0.29027
 Alpha  occ. eigenvalues --   -0.28710  -0.28379  -0.28196  -0.27633  -0.27319
 Alpha  occ. eigenvalues --   -0.27062  -0.26872  -0.26682  -0.26251  -0.26021
 Alpha  occ. eigenvalues --   -0.25706  -0.25496  -0.24852  -0.24655  -0.24325
 Alpha  occ. eigenvalues --   -0.24078  -0.23946  -0.23683  -0.23645  -0.23578
 Alpha  occ. eigenvalues --   -0.22793  -0.22643  -0.22377  -0.22078  -0.21913
 Alpha  occ. eigenvalues --   -0.21279  -0.20999  -0.20805  -0.20507  -0.20206
 Alpha  occ. eigenvalues --   -0.19958  -0.19452  -0.18180
 Alpha virt. eigenvalues --   -0.09435  -0.03525  -0.03002  -0.02366  -0.01377
 Alpha virt. eigenvalues --   -0.00978  -0.00738  -0.00447  -0.00354  -0.00305
 Alpha virt. eigenvalues --    0.00078   0.00220   0.00555   0.00992   0.01661

 Mulliken charges:
               1
     1  C    0.050612
     2  C    0.008850
     3  O   -0.300770
     4  H    0.048896
     5  H    0.019231
     6  H    0.010478
     7  N   -0.107224
     8  C    0.133130
     9  C    0.015786
    10  O   -0.305296
    11  C    0.143639
    12  C    0.100374
    13  O   -0.380996
    14  O   -0.456520
    15  H    0.117024
    16  H    0.002844
    17  H   -0.008863
    18  H    0.025403
    19  N   -0.142935
    20  C    0.121774
    21  C    0.054291
    22  O   -0.292675
    23  C    0.035190
    24  C   -0.023217
    25  C    0.041323
    26  C   -0.026650
    27  N    0.076042
    28  H    0.139214
    29  H    0.015091
    30  H    0.020007
    31  H    0.015681
    32  H    0.039932
    33  H   -0.007626
    34  H    0.036817
    35  H    0.046380
    36  H    0.068503
    37  H    0.049829
    38  H    0.191941
    39  H    0.212685
    40  H    0.185078
    41  N   -0.121855
    42  C    0.122508
    43  C    0.061516
    44  O   -0.289309
    45  C    0.095199
    46  C    0.131367
    47  O   -0.399708
    48  O   -0.462008
    49  H    0.149064
    50  H    0.015720
    51  H   -0.001499
    52  H    0.027257
    53  N   -0.153125
    54  C    0.206399
    55  C    0.044191
    56  O   -0.303108
    57  H    0.114630
    58  H    0.024264
    59  H    0.018730
    60  N   -0.176379
    61  C    0.160945
    62  C    0.019327
    63  O   -0.303543
    64  C    0.104829
    65  C    0.111346
    66  N   -0.040522
    67  O   -0.363389
    68  H    0.152088
    69  H    0.026448
    70  H    0.075719
    71  H   -0.004100
    72  H    0.131638
    73  H    0.122720
    74  N   -0.154601
    75  C    0.248387
    76  C    0.048676
    77  O   -0.317394
    78  H    0.137219
    79  H    0.040007
    80  H    0.025281
    81  N   -0.122486
    82  C    0.049410
    83  C    0.150834
    84  O   -0.372218
    85  C    0.158009
    86  C   -0.028646
    87  C    0.029453
    88  C    0.077298
    89  C   -0.008276
    90  C   -0.050321
    91  C    0.169017
    92  O   -0.192380
    93  H    0.143136
    94  H    0.011801
    95  H   -0.005119
    96  H   -0.038973
    97  H   -0.066147
    98  H   -0.025419
    99  H   -0.036005
   100  H   -0.048513
   101  H    0.165757
   102  N   -0.117284
   103  C    0.131988
   104  C    0.073196
   105  O   -0.297338
   106  C   -0.092409
   107  C    0.072665
   108  C    0.041665
   109  C   -0.022753
   110  H    0.138017
   111  H    0.004413
   112  H   -0.012112
   113  H   -0.008895
   114  H   -0.016967
   115  H    0.001850
   116  H    0.031161
   117  H    0.012765
   118  H    0.015877
   119  H    0.011303
   120  H    0.022388
   121  N   -0.125670
   122  C    0.083569
   123  C    0.110797
   124  O   -0.287707
   125  C    0.240408
   126  O   -0.339695
   127  H    0.133421
   128  H    0.024731
   129  H   -0.000131
   130  H   -0.027088
   131  H    0.172363
   132  N   -0.142409
   133  C    0.085668
   134  C    0.043027
   135  O   -0.243617
   136  C    0.064646
   137  H    0.123952
   138  H    0.017055
   139  H    0.032401
   140  H    0.038588
   141  H    0.007345
   142  N   -0.132999
   143  C    0.115936
   144  C    0.065892
   145  O   -0.259985
   146  C    0.002334
   147  H    0.108618
   148  H    0.011940
   149  H    0.019969
   150  H    0.026707
   151  H    0.028453
   152  N   -0.172005
   153  C    0.138455
   154  C    0.089060
   155  O   -0.295224
   156  C   -0.015941
   157  C    0.092727
   158  C    0.210997
   159  O   -0.414216
   160  O   -0.452147
   161  H    0.126332
   162  H   -0.030454
   163  H    0.038599
   164  H   -0.002001
   165  H    0.018442
   166  H   -0.017974
   167  N   -0.170977
   168  C    0.125627
   169  H    0.004790
   170  H    0.027092
   171  H    0.028714
   172  H    0.140135
   173  Ca   1.300605
   174  O   -0.321145
   175  H    0.158235
   176  H    0.145806
 Sum of Mulliken charges =   0.00000

 Dipole moment (field-independent basis, Debye):
    X=             22.6314    Y=              2.1674    Z=             10.9643  Tot=             25.2407
 Quadrupole moment (field-independent basis, Debye-Ang):
   XX=           -658.7483   YY=           -467.0977   ZZ=           -497.4445
   XY=             95.6353   XZ=             -0.1134   YZ=            133.6527

 ESP charges:
               1
     1  C   -0.459557
     2  C    0.857009
     3  O   -0.709536
     4  H    0.136273
     5  H    0.122124
     6  H    0.098437
     7  N   -0.926321
     8  C    0.648837
     9  C    0.160618
    10  O   -0.550306
    11  C   -0.104444
    12  C    0.713571
    13  O   -0.614006
    14  O   -0.873336
    15  H    0.392250
    16  H   -0.003798
    17  H   -0.003120
    18  H   -0.032071
    19  N    0.050558
    20  C    0.012832
    21  C    0.611407
    22  O   -0.561177
    23  C   -0.097961
    24  C    0.347558
    25  C   -0.398820
    26  C    0.267543
    27  N   -0.441607
    28  H    0.032730
    29  H    0.028194
    30  H    0.039095
    31  H   -0.001462
    32  H   -0.021996
    33  H   -0.057469
    34  H    0.113818
    35  H    0.109984
    36  H    0.041801
    37  H    0.020574
    38  H    0.314825
    39  H    0.370094
    40  H    0.338150
    41  N   -0.585178
    42  C    0.207828
    43  C    0.397480
    44  O   -0.494770
    45  C   -0.280265
    46  C    0.913456
    47  O   -0.742782
    48  O   -0.765669
    49  H    0.292547
    50  H    0.055128
    51  H    0.059050
    52  H    0.074927
    53  N   -0.285101
    54  C   -0.379124
    55  C    0.636912
    56  O   -0.587456
    57  H    0.279723
    58  H    0.159958
    59  H    0.160992
    60  N   -0.278754
    61  C   -0.025058
    62  C    0.335177
    63  O   -0.489121
    64  C   -0.163899
    65  C    0.513656
    66  N   -0.636361
    67  O   -0.502398
    68  H    0.263091
    69  H    0.134544
    70  H    0.123901
    71  H    0.067550
    72  H    0.332658
    73  H    0.322763
    74  N   -0.135493
    75  C   -0.237990
    76  C    0.633464
    77  O   -0.594969
    78  H    0.161887
    79  H    0.143991
    80  H    0.115226
    81  N   -0.454527
    82  C    0.255683
    83  C    0.653698
    84  O   -0.631699
    85  C   -0.118555
    86  C    0.072818
    87  C   -0.220357
    88  C   -0.123718
    89  C   -0.239735
    90  C   -0.322387
    91  C    0.381856
    92  O   -0.546757
    93  H    0.318238
    94  H    0.014508
    95  H    0.009942
    96  H    0.013510
    97  H    0.154880
    98  H    0.168553
    99  H    0.166131
   100  H    0.142963
   101  H    0.403384
   102  N   -0.772710
   103  C    0.339479
   104  C    0.463834
   105  O   -0.549722
   106  C   -0.129201
   107  C   -0.004696
   108  C    0.029119
   109  C   -0.258730
   110  H    0.385482
   111  H    0.048718
   112  H    0.034019
   113  H    0.031356
   114  H    0.015755
   115  H    0.037829
   116  H    0.026398
   117  H   -0.099320
   118  H    0.079080
   119  H    0.122861
   120  H    0.090540
   121  N   -0.103494
   122  C   -0.145014
   123  C    0.562969
   124  O   -0.463672
   125  C    0.250989
   126  O   -0.633749
   127  H   -0.065083
   128  H    0.082623
   129  H    0.003621
   130  H    0.007705
   131  H    0.441074
   132  N   -0.478951
   133  C    0.274517
   134  C    0.469452
   135  O   -0.513447
   136  C   -0.430241
   137  H    0.281814
   138  H    0.015746
   139  H    0.130681
   140  H    0.139885
   141  H    0.101509
   142  N   -0.433783
   143  C    0.231598
   144  C    0.336767
   145  O   -0.513699
   146  C   -0.339832
   147  H    0.260239
   148  H    0.046704
   149  H    0.091692
   150  H    0.073174
   151  H    0.109637
   152  N    0.007599
   153  C   -0.322158
   154  C    0.619885
   155  O   -0.602440
   156  C   -0.021929
   157  C   -0.062593
   158  C    0.585085
   159  O   -0.513593
   160  O   -0.585344
   161  H    0.133724
   162  H    0.128984
   163  H    0.108597
   164  H    0.081068
   165  H    0.017522
   166  H    0.024445
   167  N   -0.175960
   168  C   -0.135027
   169  H    0.035281
   170  H    0.070094
   171  H    0.090459
   172  H    0.167711
   173  Ca   1.448915
   174  O   -0.839319
   175  H    0.390657
   176  H    0.395578
 Sum of ESP charges =   0.00000

 Normal termination of Gaussian 09 at Mon Sep 16 18:10:42 2019.
