 Gaussian 09, Revision D.01,
 Gaussian 09:  ES64L-G09RevD.01 24-Apr-2013

 ----------------------------------------------------------------------
 #maxdisk=50GB #B3LYP/SVP Density=Current scf=(tight) #IOP(5/87=12)Pop=
 (MK,readradii) iop(6/33=2) iop(6/42=6)
 ----------------------------------------------------------------------

 ------------
 SOL molecule
 ------------
 Symbolic Z-matrix:
 Charge =  0 Multiplicity = 1

                         Standard orientation:
 ---------------------------------------------------------------------
 Center     Atomic      Atomic             Coordinates (Angstroms)
 Number     Number       Type             X           Y           Z
 ---------------------------------------------------------------------
      1          6           0        1.970952    2.158478    5.944353
      2          6           0        1.537425    2.193402    4.482869
      3          8           0        2.389124    2.119148    3.601622
      4          1           0        2.057224    1.122676    6.272139
      5          1           0        2.936019    2.654164    6.049327
      6          1           0        1.229186    2.672116    6.556439
      7          7           0        0.242294    2.311770    4.185505
      8          6           0       -0.292279    2.381109    2.838500
      9          6           0       -0.028450    3.734067    2.194684
     10          8           0       -0.371419    4.737843    2.817505
     11          6           0       -1.759237    1.968181    2.849684
     12          6           0       -2.351075    1.655967    1.479483
     13          8           0       -3.584041    1.425901    1.487618
     14          8           0       -1.604373    1.724046    0.486357
     15          1           0       -0.411480    2.445557    4.935292
     16          1           0        0.273225    1.607645    2.309672
     17          1           0       -2.361418    2.645604    3.462363
     18          1           0       -1.846904    1.026311    3.392633
     19          7           0        0.450069    3.732574    0.947320
     20          6           0        0.949459    4.923448    0.297221
     21          6           0       -0.030748    5.464963   -0.732514
     22          8           0        0.028395    6.675615   -0.922841
     23          6           0        2.395942    4.735094   -0.154011
     24          6           0        3.339655    4.391494    0.991041
     25          6           0        4.828082    4.450624    0.693735
     26          6           0        5.340600    5.862000    0.402114
     27          7           0        5.263353    6.723746    1.584327
     28          1           0        0.638828    2.858040    0.471862
     29          1           0        1.036563    5.642658    1.116153
     30          1           0        2.663561    5.683907   -0.638918
     31          1           0        2.440596    3.967888   -0.922581
     32          1           0        3.124370    3.366083    1.291846
     33          1           0        3.187358    5.088995    1.813962
     34          1           0        5.039701    3.773802   -0.141567
     35          1           0        5.313820    4.027438    1.571159
     36          1           0        4.786473    6.236857   -0.455630
     37          1           0        6.375260    5.727248    0.094510
     38          1           0        4.367679    7.178581    1.646718
     39          1           0        5.560151    6.264599    2.433324
     40          1           0        5.897429    7.501588    1.455059
     41          7           0       -0.913577    4.616907   -1.274284
     42          6           0       -1.950758    5.072631   -2.179144
     43          6           0       -3.367900    4.987139   -1.632793
     44          8           0       -4.241857    5.663389   -2.170738
     45          6           0       -1.959037    4.366644   -3.535209
     46          6           0       -2.552346    2.965366   -3.524961
     47          8           0       -2.939444    2.526900   -4.625826
     48          8           0       -2.567479    2.268754   -2.483327
     49          1           0       -0.789861    3.618859   -1.161173
     50          1           0       -1.755847    6.109661   -2.461242
     51          1           0       -0.955317    4.255025   -3.944340
     52          1           0       -2.551200    4.988571   -4.202929
     53          7           0       -3.570994    4.228155   -0.553999
     54          6           0       -4.834583    4.045251    0.129220
     55          6           0       -5.802730    3.052156   -0.506275
     56          8           0       -7.011996    3.305983   -0.553683
     57          1           0       -2.849125    3.601530   -0.249947
     58          1           0       -5.425452    4.958314    0.196237
     59          1           0       -4.654102    3.780870    1.174269
     60          7           0       -5.288803    2.020857   -1.171708
     61          6           0       -6.113494    0.933654   -1.656656
     62          6           0       -6.530333   -0.013897   -0.543870
     63          8           0       -7.475690   -0.772963   -0.743921
     64          6           0       -5.362527    0.271801   -2.806569
     65          6           0       -4.267649   -0.734705   -2.464390
     66          7           0       -3.731862   -1.534163   -3.388997
     67          8           0       -3.823909   -0.789738   -1.326775
     68          1           0       -4.339765    2.050949   -1.509230
     69          1           0       -7.049060    1.367168   -1.998683
     70          1           0       -5.048142    1.008939   -3.542089
     71          1           0       -6.118239   -0.194159   -3.441849
     72          1           0       -3.879884   -1.339799   -4.371246
     73          1           0       -3.183766   -2.353459   -3.181282
     74          7           0       -5.881114    0.070583    0.623982
     75          6           0       -6.194038   -0.690285    1.819540
     76          6           0       -5.264890   -1.825411    2.194738
     77          8           0       -5.550004   -2.530615    3.156142
     78          1           0       -5.049643    0.640359    0.705292
     79          1           0       -7.213086   -1.041204    1.649254
     80          1           0       -6.336985    0.026218    2.630151
     81          7           0       -4.246146   -2.104167    1.376536
     82          6           0       -3.260162   -3.158483    1.415967
     83          6           0       -1.846818   -2.650234    1.137502
     84          8           0       -1.660580   -1.671755    0.417229
     85          6           0       -3.679153   -4.136710    0.326924
     86          6           0       -5.127470   -4.517984    0.124916
     87          6           0       -5.879301   -3.924141   -0.902411
     88          6           0       -5.690981   -5.272651    1.155951
     89          6           0       -7.264831   -4.077761   -0.835288
     90          6           0       -7.073994   -5.507285    1.083681
     91          6           0       -7.906291   -4.897925    0.124796
     92          8           0       -9.251693   -5.058386    0.106229
     93          1           0       -4.176524   -1.531094    0.551164
     94          1           0       -3.271588   -3.670836    2.379276
     95          1           0       -3.068520   -5.034104    0.453462
     96          1           0       -3.335413   -3.686582   -0.610001
     97          1           0       -5.379121   -3.358045   -1.671473
     98          1           0       -5.061183   -5.822678    1.841389
     99          1           0       -7.888865   -3.704349   -1.634628
    100          1           0       -7.639210   -5.921988    1.907059
    101          1           0       -9.604276   -5.551163    0.856866
    102          7           0       -0.920414   -3.395831    1.738220
    103          6           0        0.501800   -3.140724    1.717516
    104          6           0        1.245813   -3.891233    0.620438
    105          8           0        0.945013   -5.073015    0.428053
    106          6           0        1.191233   -3.352525    3.059724
    107          6           0        0.434059   -2.801635    4.261102
    108          6           0        2.580142   -2.702490    3.014066
    109          6           0        0.004360   -1.331230    4.173546
    110          1           0       -1.239046   -4.326258    1.969041
    111          1           0        0.615780   -2.074520    1.500218
    112          1           0        1.426790   -4.406055    3.115274
    113          1           0        1.063197   -3.026314    5.123311
    114          1           0       -0.466024   -3.404742    4.393055
    115          1           0        2.986139   -2.831230    4.017357
    116          1           0        3.218152   -3.257926    2.332572
    117          1           0        2.623675   -1.622706    2.829212
    118          1           0       -0.575631   -1.081199    3.290316
    119          1           0       -0.582435   -1.100423    5.058984
    120          1           0        0.925468   -0.752961    4.165452
    121          7           0        2.145123   -3.293052   -0.161496
    122          6           0        3.005443   -3.926199   -1.135290
    123          6           0        4.469710   -3.715321   -0.778005
    124          8           0        4.753406   -2.889256    0.087115
    125          6           0        2.696515   -3.428166   -2.550891
    126          8           0        2.759576   -2.035089   -2.716604
    127          1           0        2.231968   -2.298004   -0.038058
    128          1           0        2.871643   -5.008974   -1.169850
    129          1           0        1.687022   -3.767363   -2.760817
    130          1           0        3.356989   -4.053955   -3.169570
    131          1           0        2.165868   -1.609411   -2.088027
    132          7           0        5.351547   -4.383788   -1.530013
    133          6           0        6.763262   -4.398888   -1.244648
    134          6           0        7.480323   -3.125094   -1.666397
    135          8           0        8.459259   -2.750994   -1.019609
    136          6           0        7.373757   -5.624283   -1.908878
    137          1           0        5.019508   -4.957644   -2.294368
    138          1           0        6.922158   -4.615687   -0.183163
    139          1           0        8.437047   -5.409471   -1.980082
    140          1           0        7.155134   -6.539560   -1.359359
    141          1           0        7.026976   -5.770188   -2.933698
    142          7           0        6.993474   -2.376066   -2.667214
    143          6           0        7.468026   -1.023399   -2.899574
    144          6           0        7.099269   -0.121760   -1.722856
    145          8           0        7.902963    0.694490   -1.290292
    146          6           0        6.839104   -0.525646   -4.193096
    147          1           0        6.274548   -2.744180   -3.269740
    148          1           0        8.544400   -0.901116   -2.989939
    149          1           0        5.751062   -0.598643   -4.108630
    150          1           0        7.053727    0.526149   -4.339942
    151          1           0        7.288504   -1.130235   -4.979997
    152          7           0        5.966275   -0.321241   -1.063514
    153          6           0        5.531677    0.454229    0.087777
    154          6           0        6.214669    0.135571    1.414494
    155          8           0        6.556886    1.003717    2.210301
    156          6           0        4.014292    0.357692    0.248474
    157          6           0        3.256810    0.812383   -0.997952
    158          6           0        1.765617    0.528515   -0.911562
    159          8           0        0.914793    1.436495   -0.830503
    160          8           0        1.324022   -0.629745   -1.052725
    161          1           0        5.382233   -1.115113   -1.302810
    162          1           0        5.646248    1.500864   -0.175529
    163          1           0        3.675811    0.939560    1.100801
    164          1           0        3.719353   -0.686770    0.378128
    165          1           0        3.623985    0.268854   -1.874912
    166          1           0        3.461999    1.841099   -1.285077
    167          7           0        6.458705   -1.164259    1.616212
    168          6           0        7.223517   -1.846991    2.638044
    169          1           0        6.615308   -2.636826    3.078781
    170          1           0        8.117014   -2.283284    2.192365
    171          1           0        7.512937   -1.135748    3.412317
    172          1           0        6.117677   -1.767133    0.881473
    173         20           0       -1.287167    0.232608   -1.596920
    174          8           0       -0.800343   -2.099750   -2.772169
    175          1           0       -1.354366   -2.883995   -2.786952
    176          1           0       -0.453951   -2.024619   -3.660407
 ---------------------------------------------------------------------

 SCF Done:  E(RB3LYP) =  -5333.59747792     A.U. after   18 cycles

 The electronic state is 1-A.
 Alpha  occ. eigenvalues -- -145.40860 -19.22933 -19.15393 -19.14731 -19.14564
 Alpha  occ. eigenvalues --  -19.13072 -19.12747 -19.12233 -19.11545 -19.10612
 Alpha  occ. eigenvalues --  -19.10437 -19.09642 -19.08539 -19.08033 -19.07395
 Alpha  occ. eigenvalues --  -19.07184 -19.06492 -19.05975 -19.05148 -19.04771
 Alpha  occ. eigenvalues --  -19.04411 -19.03904 -19.03851 -19.03026 -15.46563
 Alpha  occ. eigenvalues --  -14.57764 -14.40902 -14.39038 -14.38866 -14.37502
 Alpha  occ. eigenvalues --  -14.36729 -14.36139 -14.34354 -14.33198 -14.33190
 Alpha  occ. eigenvalues --  -14.32302 -14.31611 -14.30330 -14.29233 -14.29103
 Alpha  occ. eigenvalues --  -12.60192 -12.60149 -12.60117 -10.33383 -10.33209
 Alpha  occ. eigenvalues --  -10.32161 -10.31093 -10.30477 -10.30080 -10.29407
 Alpha  occ. eigenvalues --  -10.28513 -10.27591 -10.27324 -10.27186 -10.26997
 Alpha  occ. eigenvalues --  -10.26303 -10.26139 -10.25621 -10.25301 -10.25208
 Alpha  occ. eigenvalues --  -10.24532 -10.24456 -10.24098 -10.23659 -10.23647
 Alpha  occ. eigenvalues --  -10.23361 -10.23280 -10.23220 -10.22935 -10.22807
 Alpha  occ. eigenvalues --  -10.22517 -10.22063 -10.21764 -10.21608 -10.21250
 Alpha  occ. eigenvalues --  -10.20908 -10.20620 -10.20304 -10.20212 -10.19931
 Alpha  occ. eigenvalues --  -10.19647 -10.19259 -10.19206 -10.19139 -10.18812
 Alpha  occ. eigenvalues --  -10.18614 -10.17950 -10.17932 -10.17760 -10.17643
 Alpha  occ. eigenvalues --  -10.17576 -10.17405 -10.17161 -10.16984 -10.16652
 Alpha  occ. eigenvalues --  -10.16059 -10.15191  -1.83320  -1.13054  -1.10951
 Alpha  occ. eigenvalues --   -1.10837  -1.10545  -1.08668  -1.08262  -1.06886
 Alpha  occ. eigenvalues --   -1.06659  -1.05434  -1.05012  -1.03746  -1.03296
 Alpha  occ. eigenvalues --   -1.03240  -1.02965  -1.01755  -1.00668  -1.00578
 Alpha  occ. eigenvalues --   -0.99719  -0.99525  -0.99244  -0.98535  -0.98138
 Alpha  occ. eigenvalues --   -0.97722  -0.97313  -0.96342  -0.95488  -0.95131
 Alpha  occ. eigenvalues --   -0.94746  -0.93601  -0.93346  -0.92758  -0.91007
 Alpha  occ. eigenvalues --   -0.90723  -0.90051  -0.89714  -0.89547  -0.89527
 Alpha  occ. eigenvalues --   -0.89058  -0.87602  -0.87328  -0.86649  -0.85702
 Alpha  occ. eigenvalues --   -0.83463  -0.83048  -0.82670  -0.81094  -0.80454
 Alpha  occ. eigenvalues --   -0.79516  -0.78579  -0.77596  -0.76730  -0.76244
 Alpha  occ. eigenvalues --   -0.75184  -0.74699  -0.74252  -0.74028  -0.72924
 Alpha  occ. eigenvalues --   -0.72462  -0.72335  -0.71759  -0.70674  -0.70346
 Alpha  occ. eigenvalues --   -0.70049  -0.69544  -0.69485  -0.68305  -0.67984
 Alpha  occ. eigenvalues --   -0.67717  -0.66973  -0.65758  -0.65452  -0.64355
 Alpha  occ. eigenvalues --   -0.64276  -0.63735  -0.63300  -0.63162  -0.62369
 Alpha  occ. eigenvalues --   -0.62269  -0.61820  -0.61224  -0.60809  -0.60576
 Alpha  occ. eigenvalues --   -0.60511  -0.59895  -0.59381  -0.58875  -0.58787
 Alpha  occ. eigenvalues --   -0.58040  -0.57440  -0.57152  -0.57071  -0.56957
 Alpha  occ. eigenvalues --   -0.56729  -0.56533  -0.56076  -0.55626  -0.55594
 Alpha  occ. eigenvalues --   -0.54886  -0.54483  -0.54090  -0.53752  -0.53671
 Alpha  occ. eigenvalues --   -0.53571  -0.53295  -0.53081  -0.52368  -0.51894
 Alpha  occ. eigenvalues --   -0.51735  -0.51687  -0.51325  -0.50667  -0.50544
 Alpha  occ. eigenvalues --   -0.49817  -0.49710  -0.49507  -0.49312  -0.49147
 Alpha  occ. eigenvalues --   -0.48885  -0.48774  -0.48394  -0.48204  -0.48005
 Alpha  occ. eigenvalues --   -0.47731  -0.47455  -0.47342  -0.47195  -0.46997
 Alpha  occ. eigenvalues --   -0.46945  -0.46889  -0.46410  -0.46133  -0.46065
 Alpha  occ. eigenvalues --   -0.45935  -0.45663  -0.45559  -0.45481  -0.45300
 Alpha  occ. eigenvalues --   -0.45148  -0.44921  -0.44666  -0.44449  -0.44315
 Alpha  occ. eigenvalues --   -0.44235  -0.44042  -0.43617  -0.43542  -0.43439
 Alpha  occ. eigenvalues --   -0.43310  -0.43113  -0.42993  -0.42925  -0.42823
 Alpha  occ. eigenvalues --   -0.42646  -0.42396  -0.42193  -0.41931  -0.41725
 Alpha  occ. eigenvalues --   -0.41628  -0.41352  -0.41295  -0.41046  -0.40960
 Alpha  occ. eigenvalues --   -0.40897  -0.40894  -0.40678  -0.40540  -0.40414
 Alpha  occ. eigenvalues --   -0.40260  -0.40202  -0.40084  -0.40021  -0.39729
 Alpha  occ. eigenvalues --   -0.39632  -0.39512  -0.39435  -0.39344  -0.39269
 Alpha  occ. eigenvalues --   -0.39097  -0.38938  -0.38726  -0.38647  -0.38577
 Alpha  occ. eigenvalues --   -0.38501  -0.38335  -0.37911  -0.37820  -0.37775
 Alpha  occ. eigenvalues --   -0.37704  -0.37546  -0.37450  -0.36904  -0.36870
 Alpha  occ. eigenvalues --   -0.36628  -0.36488  -0.36443  -0.36220  -0.36149
 Alpha  occ. eigenvalues --   -0.36018  -0.35821  -0.35582  -0.35377  -0.35296
 Alpha  occ. eigenvalues --   -0.35053  -0.34782  -0.34421  -0.34240  -0.34109
 Alpha  occ. eigenvalues --   -0.34062  -0.33835  -0.33768  -0.33157  -0.32947
 Alpha  occ. eigenvalues --   -0.32854  -0.32828  -0.32416  -0.32209  -0.31945
 Alpha  occ. eigenvalues --   -0.31799  -0.31516  -0.31382  -0.31250  -0.30879
 Alpha  occ. eigenvalues --   -0.30152  -0.30104  -0.29878  -0.29832  -0.29355
 Alpha  occ. eigenvalues --   -0.28908  -0.28649  -0.27829  -0.27702  -0.27642
 Alpha  occ. eigenvalues --   -0.27120  -0.26352  -0.26158  -0.25991  -0.25464
 Alpha  occ. eigenvalues --   -0.25218  -0.24900  -0.24488  -0.24068  -0.23918
 Alpha  occ. eigenvalues --   -0.23562  -0.23499  -0.23280  -0.23211  -0.22986
 Alpha  occ. eigenvalues --   -0.22831  -0.22430  -0.22243  -0.21904  -0.21845
 Alpha  occ. eigenvalues --   -0.21706  -0.20396  -0.20219  -0.19803  -0.19737
 Alpha  occ. eigenvalues --   -0.19094  -0.19006  -0.18630
 Alpha virt. eigenvalues --   -0.09374  -0.05592  -0.03863  -0.03325  -0.03037
 Alpha virt. eigenvalues --   -0.02074  -0.01980  -0.01208  -0.00656  -0.00256
 Alpha virt. eigenvalues --    0.00253   0.00580   0.00710   0.00902   0.01445

 Mulliken charges:
               1
     1  C    0.071633
     2  C    0.017917
     3  O   -0.312378
     4  H    0.035737
     5  H    0.023751
     6  H    0.005152
     7  N   -0.116250
     8  C    0.135753
     9  C    0.086605
    10  O   -0.294801
    11  C    0.022959
    12  C    0.189186
    13  O   -0.375640
    14  O   -0.465723
    15  H    0.112000
    16  H   -0.021515
    17  H    0.013218
    18  H    0.007013
    19  N   -0.161923
    20  C    0.117534
    21  C    0.111633
    22  O   -0.294526
    23  C    0.014106
    24  C    0.008105
    25  C   -0.033203
    26  C    0.013357
    27  N    0.088522
    28  H    0.164490
    29  H   -0.014554
    30  H   -0.020338
    31  H    0.001930
    32  H    0.067743
    33  H   -0.045965
    34  H    0.053389
    35  H    0.047613
    36  H    0.080769
    37  H    0.073833
    38  H    0.203023
    39  H    0.198665
    40  H    0.184300
    41  N   -0.135663
    42  C    0.124540
    43  C    0.058119
    44  O   -0.271798
    45  C    0.066274
    46  C    0.088654
    47  O   -0.352099
    48  O   -0.495254
    49  H    0.136539
    50  H    0.016673
    51  H   -0.006928
    52  H    0.033011
    53  N   -0.149297
    54  C    0.231666
    55  C    0.026268
    56  O   -0.287491
    57  H    0.135974
    58  H    0.008469
    59  H    0.028988
    60  N   -0.169804
    61  C    0.161683
    62  C    0.048282
    63  O   -0.286604
    64  C    0.057458
    65  C    0.037129
    66  N   -0.054440
    67  O   -0.311755
    68  H    0.145741
    69  H    0.021283
    70  H    0.062091
    71  H    0.013663
    72  H    0.140493
    73  H    0.091841
    74  N   -0.185660
    75  C    0.207027
    76  C    0.058042
    77  O   -0.303618
    78  H    0.147886
    79  H    0.032702
    80  H    0.024285
    81  N   -0.141373
    82  C    0.112636
    83  C    0.129877
    84  O   -0.324906
    85  C    0.126419
    86  C   -0.026929
    87  C    0.034522
    88  C    0.041171
    89  C    0.021020
    90  C   -0.040137
    91  C    0.134039
    92  O   -0.188060
    93  H    0.151796
    94  H   -0.001829
    95  H   -0.020378
    96  H   -0.075159
    97  H   -0.069496
    98  H   -0.030261
    99  H   -0.022803
   100  H   -0.043010
   101  H    0.177977
   102  N   -0.104403
   103  C    0.144866
   104  C    0.046181
   105  O   -0.307558
   106  C   -0.094404
   107  C    0.074331
   108  C    0.016351
   109  C   -0.032911
   110  H    0.134338
   111  H    0.005136
   112  H   -0.018586
   113  H   -0.004813
   114  H   -0.015908
   115  H   -0.005389
   116  H    0.017347
   117  H    0.035440
   118  H    0.052304
   119  H    0.016780
   120  H    0.025577
   121  N   -0.106601
   122  C    0.043783
   123  C    0.120481
   124  O   -0.277325
   125  C    0.280684
   126  O   -0.348132
   127  H    0.150218
   128  H    0.019290
   129  H   -0.024223
   130  H   -0.036937
   131  H    0.179507
   132  N   -0.130919
   133  C    0.076063
   134  C    0.076561
   135  O   -0.259268
   136  C    0.029470
   137  H    0.128115
   138  H    0.034208
   139  H    0.042635
   140  H    0.041100
   141  H    0.001306
   142  N   -0.138231
   143  C    0.117676
   144  C    0.032155
   145  O   -0.260949
   146  C    0.027711
   147  H    0.107688
   148  H    0.022299
   149  H    0.021636
   150  H    0.027649
   151  H    0.029953
   152  N   -0.155393
   153  C    0.151435
   154  C    0.095615
   155  O   -0.282120
   156  C   -0.058141
   157  C    0.079787
   158  C    0.169763
   159  O   -0.405623
   160  O   -0.439440
   161  H    0.123250
   162  H   -0.035095
   163  H    0.049938
   164  H    0.011147
   165  H   -0.003145
   166  H   -0.028961
   167  N   -0.166307
   168  C    0.128755
   169  H    0.013352
   170  H    0.030800
   171  H    0.030618
   172  H    0.122916
   173  Ca   1.309121
   174  O   -0.267957
   175  H    0.193468
   176  H    0.187331
 Sum of Mulliken charges =   0.00000

 Dipole moment (field-independent basis, Debye):
    X=             32.0703    Y=             -4.1006    Z=             -1.6931  Tot=             32.3757
 Quadrupole moment (field-independent basis, Debye-Ang):
   XX=           -645.1027   YY=           -456.8675   ZZ=           -522.2510
   XY=            148.9684   XZ=            -14.5879   YZ=             86.0328

 ESP charges:
               1
     1  C   -0.441142
     2  C    0.889512
     3  O   -0.684291
     4  H    0.115770
     5  H    0.125204
     6  H    0.093643
     7  N   -0.889057
     8  C    0.239861
     9  C    0.623955
    10  O   -0.576645
    11  C   -0.046928
    12  C    0.647464
    13  O   -0.651425
    14  O   -0.779265
    15  H    0.393255
    16  H    0.023386
    17  H    0.050861
    18  H   -0.009884
    19  N   -0.384211
    20  C   -0.235346
    21  C    0.715188
    22  O   -0.589871
    23  C   -0.138326
    24  C    0.319039
    25  C   -0.174945
    26  C    0.154291
    27  N   -0.464313
    28  H    0.293269
    29  H    0.116604
    30  H    0.050170
    31  H    0.022497
    32  H   -0.029164
    33  H   -0.073223
    34  H    0.072527
    35  H    0.050891
    36  H    0.035955
    37  H    0.057393
    38  H    0.367934
    39  H    0.372082
    40  H    0.333807
    41  N   -0.553996
    42  C    0.166469
    43  C    0.445625
    44  O   -0.519604
    45  C   -0.228389
    46  C    0.852631
    47  O   -0.689867
    48  O   -0.987603
    49  H    0.380793
    50  H    0.062599
    51  H    0.041116
    52  H    0.077374
    53  N   -0.271769
    54  C   -0.115917
    55  C    0.458933
    56  O   -0.544630
    57  H    0.180665
    58  H    0.096345
    59  H    0.096481
    60  N   -0.078534
    61  C   -0.343356
    62  C    0.502484
    63  O   -0.543522
    64  C    0.047210
    65  C    0.635195
    66  N   -0.963040
    67  O   -0.648057
    68  H    0.258644
    69  H    0.168493
    70  H    0.085664
    71  H    0.045057
    72  H    0.396235
    73  H    0.420414
    74  N   -0.082379
    75  C   -0.315862
    76  C    0.708728
    77  O   -0.599544
    78  H    0.121173
    79  H    0.147603
    80  H    0.112577
    81  N   -0.595325
    82  C    0.185334
    83  C    0.520071
    84  O   -0.551814
    85  C    0.151384
    86  C   -0.200617
    87  C   -0.210944
    88  C    0.165076
    89  C   -0.182980
    90  C   -0.484222
    91  C    0.461811
    92  O   -0.569939
    93  H    0.446330
    94  H    0.027037
    95  H   -0.053626
    96  H   -0.041863
    97  H    0.181817
    98  H    0.060860
    99  H    0.135569
   100  H    0.161169
   101  H    0.420881
   102  N   -0.523482
   103  C   -0.235379
   104  C    0.859397
   105  O   -0.604347
   106  C    0.215768
   107  C   -0.096645
   108  C   -0.345579
   109  C   -0.174886
   110  H    0.338801
   111  H    0.102696
   112  H   -0.001819
   113  H    0.037490
   114  H    0.022600
   115  H    0.088282
   116  H    0.083656
   117  H    0.090184
   118  H    0.136803
   119  H    0.059267
   120  H    0.084501
   121  N   -0.795166
   122  C    0.222899
   123  C    0.460558
   124  O   -0.403785
   125  C    0.285667
   126  O   -0.664928
   127  H    0.513905
   128  H    0.007017
   129  H   -0.033686
   130  H   -0.036913
   131  H    0.459244
   132  N   -0.442003
   133  C    0.102698
   134  C    0.553433
   135  O   -0.522695
   136  C   -0.404518
   137  H    0.292561
   138  H    0.112344
   139  H    0.129944
   140  H    0.134648
   141  H    0.101889
   142  N   -0.531428
   143  C    0.317851
   144  C    0.238571
   145  O   -0.501670
   146  C   -0.423478
   147  H    0.297514
   148  H    0.055605
   149  H    0.098628
   150  H    0.131135
   151  H    0.114068
   152  N    0.196280
   153  C   -0.373673
   154  C    0.575346
   155  O   -0.561729
   156  C   -0.008123
   157  C   -0.251094
   158  C    0.918363
   159  O   -0.796441
   160  O   -0.833528
   161  H    0.061750
   162  H    0.119250
   163  H    0.165767
   164  H   -0.132718
   165  H    0.014799
   166  H    0.083352
   167  N   -0.148074
   168  C   -0.133841
   169  H    0.050842
   170  H    0.073767
   171  H    0.090048
   172  H    0.104008
   173  Ca   1.681198
   174  O   -0.743524
   175  H    0.399231
   176  H    0.396555
 Sum of ESP charges =   0.00000

 Normal termination of Gaussian 09 at Mon Sep 16 22:55:04 2019.
